  -2.40000010       0.00000000    
  -2.39800000       0.00000000    
  -2.39599991       0.00000000    
  -2.39400005       0.00000000    
  -2.39199996       0.00000000    
  -2.39000010       0.00000000    
  -2.38800001      -6.90826493E-36
  -2.38599992       6.99355979E-18
  -2.38400006       4.07942185E-17
  -2.38199997       9.32944786E-17
  -2.38000011       1.02324075E-16
  -2.37800002       1.77018769E-16
  -2.37599993       7.54640076E-16
  -2.37400007       1.18754390E-15
  -2.37199998      -2.99590662E-15
  -2.36999989      -1.67416231E-14
  -2.36800003      -2.70148013E-14
  -2.36599994       1.44703856E-14
  -2.36400008       1.49530426E-13
  -2.36199999       2.78640582E-13
  -2.35999990       6.49755992E-14
  -2.35800004      -8.07444985E-13
  -2.35599995      -1.89631210E-12
  -2.35400009      -1.45326850E-12
  -2.35200000       2.51765644E-12
  -2.34999990       9.00149053E-12
  -2.34800005       1.10324536E-11
  -2.34599996      -1.42677732E-12
  -2.34400010      -2.96722334E-11
  -2.34200001      -5.27748054E-11
  -2.33999991      -3.09396293E-11
  -2.33800006       5.98206137E-11
  -2.33599997       1.76678908E-10
  -2.33400011       1.95914812E-10
  -2.33200002      -8.50250252E-12
  -2.32999992      -4.07495260E-10
  -2.32800007      -7.08079761E-10
  -2.32599998      -4.70040173E-10
  -2.32399988       5.03595110E-10
  -2.32200003       1.74177017E-09
  -2.31999993       2.10843210E-09
  -2.31800008       5.46413303E-10
  -2.31599998      -2.73123502E-09
  -2.31399989      -5.58334801E-09
  -2.31200004      -4.86247220E-09
  -2.30999994       1.04517395E-09
  -2.30800009       9.67079394E-09
  -2.30599999       1.44531276E-08
  -2.30399990       8.70213235E-09
  -2.30200005      -8.15467960E-09
  -2.29999995      -2.68045284E-08
  -2.29800010      -3.15334283E-08
  -2.29600000      -1.12485781E-08
  -2.29399991       2.84689854E-08
  -2.29200006       6.26127417E-08
  -2.28999996       5.97667551E-08
  -2.28800011       6.18097662E-09
  -2.28600001      -7.52653406E-08
  -2.28399992      -1.29287685E-07
  -2.28200006      -1.00960349E-07
  -2.27999997       1.93662153E-08
  -2.27800012       1.71167983E-07
  -2.27600002       2.46048785E-07
  -2.27399993       1.56029216E-07
  -2.27200007      -9.00188724E-08
  -2.26999998      -3.58493594E-07
  -2.26799989      -4.49692521E-07
  -2.26600003      -2.27470537E-07
  -2.26399994       2.54158579E-07
  -2.26200008       7.23654182E-07
  -2.25999999       8.18313140E-07
  -2.25799990       3.23842414E-07
  -2.25600004      -6.10299196E-07
  -2.25399995      -1.44720889E-06
  -2.25200009      -1.51715778E-06
  -2.25000000      -4.65458726E-07
  -2.24799991       1.36319557E-06
  -2.24600005       2.90921571E-06
  -2.24399996       2.90218873E-06
  -2.24200010       7.14193902E-07
  -2.24000001      -2.92572622E-06
  -2.23799992      -5.92760261E-06
  -2.23600006      -5.82093980E-06
  -2.23399997      -1.38832570E-06
  -2.23200011       5.96865448E-06
  -2.23000002       1.21996463E-05
  -2.22799993       1.24252483E-05
  -2.22600007       4.01055740E-06
  -2.22399998      -1.07776632E-05
  -2.22199988      -2.44849944E-05
  -2.22000003      -2.75561906E-05
  -2.21799994      -1.38668165E-05
  -2.21600008       1.41345890E-05
  -2.21399999       4.41186530E-05
  -2.21199989       5.83939436E-05
  -2.21000004       4.31047993E-05
  -2.20799994      -2.29379248E-06
  -2.20600009      -6.10126444E-05
  -2.20400000      -1.04166909E-04
  -2.20199990      -1.04348779E-04
  -2.20000005      -5.13534869E-05
  -2.19799995       3.87468754E-05
  -2.19600010       1.27782405E-04
  -2.19400001       1.72837463E-04
  -2.19199991       1.48759427E-04
  -2.19000006       6.33045856E-05
  -2.18799996      -4.51854612E-05
  -2.18600011      -1.28510816E-04
  -2.18400002      -1.57231378E-04
  -2.18199992      -1.39771408E-04
  -2.18000007      -1.17595075E-04
  -2.17799997      -1.35001639E-04
  -2.17600012      -1.98790556E-04
  -2.17400002      -2.53573729E-04
  -2.17199993      -1.94870488E-04
  -2.17000008       7.64384458E-05
  -2.16799998       5.79841260E-04
  -2.16599989       1.20043778E-03
  -2.16400003       1.69153430E-03
  -2.16199994       1.74914731E-03
  -2.16000009       1.13754964E-03
  -2.15799999      -1.84775621E-04
  -2.15599990      -1.99703919E-03
  -2.15400004      -3.84368608E-03
  -2.15199995      -5.15555590E-03
  -2.15000010      -5.42263873E-03
  -2.14800000      -4.35557216E-03
  -2.14599991      -1.98049331E-03
  -2.14400005       1.35839253E-03
  -2.14199996       5.07881353E-03
  -2.14000010       8.48971307E-03
  -2.13800001       1.09326476E-02
  -2.13599992       1.19088311E-02
  -2.13400006       1.11774439E-02
  -2.13199997       8.81407596E-03
  -2.13000011       5.21303574E-03
  -2.12800002       1.01530645E-03
  -2.12599993      -3.04112956E-03
  -2.12400007      -6.31805696E-03
  -2.12199998      -8.45262595E-03
  -2.11999989      -9.42943059E-03
  -2.11800003      -9.49805137E-03
  -2.11599994      -8.95948987E-03
  -2.11400008      -7.92844687E-03
  -2.11199999      -6.21984154E-03
  -2.10999990      -3.46729485E-03
  -2.10800004       5.39200730E-04
  -2.10599995       5.45575097E-03
  -2.10400009       1.01745892E-02
  -2.10200000       1.30091589E-02
  -2.09999990       1.23060076E-02
  -2.09800005       7.27501605E-03
  -2.09599996      -1.34993123E-03
  -2.09400010      -1.12123042E-02
  -2.09200001      -1.89808607E-02
  -2.08999991      -2.15831995E-02
  -2.08800006      -1.75420530E-02
  -2.08599997      -7.80483196E-03
  -2.08400011       4.38395143E-03
  -2.08200002       1.46192890E-02
  -2.07999992       1.90691259E-02
  -2.07800007       1.60839930E-02
  -2.07599998       6.96861045E-03
  -2.07399988      -4.46190638E-03
  -2.07200003      -1.33951344E-02
  -2.06999993      -1.59843843E-02
  -2.06800008      -1.09369336E-02
  -2.06599998      -5.92732104E-05
  -2.06399989       1.24634579E-02
  -2.06200004       2.17441525E-02
  -2.05999994       2.41309851E-02
  -2.05800009       1.86272450E-02
  -2.05599999       7.25273509E-03
  -2.05399990      -5.75822499E-03
  -2.05200005      -1.55808069E-02
  -2.04999995      -1.86190698E-02
  -2.04800010      -1.38552394E-02
  -2.04600000      -3.25664319E-03
  -2.04399991       8.89651664E-03
  -2.04200006       1.75378956E-02
  -2.03999996       1.86876785E-02
  -2.03800011       1.10309878E-02
  -2.03600001      -3.37833771E-03
  -2.03399992      -1.96167268E-02
  -2.03200006      -3.15250941E-02
  -2.02999997      -3.39809060E-02
  -2.02800012      -2.49996427E-02
  -2.02600002      -6.81529660E-03
  -2.02399993       1.46107245E-02
  -2.02200007       3.16244066E-02
  -2.01999998       3.77790332E-02
  -2.01799989       3.04788686E-02
  -2.01600003       1.22408466E-02
  -2.01399994      -1.00598782E-02
  -2.01200008      -2.77752541E-02
  -2.00999999      -3.39115858E-02
  -2.00799990      -2.59899870E-02
  -2.00600004      -7.11317454E-03
  -2.00399995       1.52531527E-02
  -2.00200009       3.23003270E-02
  -2.00000000       3.74325179E-02
  -1.99800003       2.88638156E-02
  -1.99600005       1.01919975E-02
  -1.99399996      -1.12267584E-02
  -1.99199998      -2.73379423E-02
  -1.99000001      -3.25512551E-02
  -1.98800004      -2.57127639E-02
  -1.98599994      -1.01851961E-02
  -1.98399997       7.82245304E-03
  -1.98199999       2.18340158E-02
  -1.98000002       2.74811052E-02
  -1.97800004       2.37869676E-02
  -1.97599995       1.30307321E-02
  -1.97399998      -5.31228725E-04
  -1.97200000      -1.24188270E-02
  -1.97000003      -1.94348935E-02
  -1.96800005      -2.04423945E-02
  -1.96599996      -1.63029879E-02
  -1.96399999      -9.19565745E-03
  -1.96200001      -1.69679266E-03
  -1.96000004       4.02138894E-03
  -1.95799994       6.66760048E-03
  -1.95599997       5.95653895E-03
  -1.95400000       2.48024194E-03
  -1.95200002      -2.54266476E-03
  -1.95000005      -7.54824746E-03
  -1.94799995      -1.09131522E-02
  -1.94599998      -1.12571418E-02
  -1.94400001      -7.76244560E-03
  -1.94200003      -4.59966948E-04
  -1.94000006       9.61579103E-03
  -1.93799996       2.05064714E-02
  -1.93599999       2.96955910E-02
  -1.93400002       3.47162224E-02
  -1.93200004       3.38566378E-02
  -1.92999995       2.67555378E-02
  -1.92799997       1.46759078E-02
  -1.92600000       3.15094425E-04
  -1.92400002      -1.28637617E-02
  -1.92200005      -2.16302238E-02
  -1.91999996      -2.40193587E-02
  -1.91799998      -2.00318694E-02
  -1.91600001      -1.16973743E-02
  -1.91400003      -2.40503834E-03
  -1.91199994       4.30178968E-03
  -1.90999997       6.01848727E-03
  -1.90799999       2.33560218E-03
  -1.90600002      -5.10213710E-03
  -1.90400004      -1.33489221E-02
  -1.90199995      -1.93758644E-02
  -1.89999998      -2.12112255E-02
  -1.89800000      -1.85308084E-02
  -1.89600003      -1.25173852E-02
  -1.89400005      -5.15665300E-03
  -1.89199996       1.63758826E-03
  -1.88999999       6.67059328E-03
  -1.88800001       9.66770854E-03
  -1.88600004       1.10539515E-02
  -1.88399994       1.15114022E-02
  -1.88199997       1.15586519E-02
  -1.88000000       1.13276644E-02
  -1.87800002       1.05953300E-02
  -1.87600005       9.01743583E-03
  -1.87399995       6.43939245E-03
  -1.87199998       3.13183758E-03
  -1.87000000      -1.79102179E-04
  -1.86800003      -2.53792410E-03
  -1.86600006      -3.17476457E-03
  -1.86399996      -1.92769058E-03
  -1.86199999       5.51707810E-04
  -1.86000001       2.96008377E-03
  -1.85800004       3.85115505E-03
  -1.85599995       2.28665909E-03
  -1.85399997      -1.67138525E-03
  -1.85200000      -6.87390286E-03
  -1.85000002      -1.14693139E-02
  -1.84800005      -1.36100138E-02
  -1.84599996      -1.21870209E-02
  -1.84399998      -7.28921127E-03
  -1.84200001      -2.01408751E-04
  -1.84000003       7.05782464E-03
  -1.83800006       1.24781122E-02
  -1.83599997       1.47883175E-02
  -1.83399999       1.38845360E-02
  -1.83200002       1.07763959E-02
  -1.83000004       7.07248412E-03
  -1.82799995       4.23551537E-03
  -1.82599998       2.95965211E-03
  -1.82400000       2.97499239E-03
  -1.82200003       3.36932391E-03
  -1.82000005       3.23258410E-03
  -1.81799996       2.24022241E-03
  -1.81599998       8.21642810E-04
  -1.81400001      -1.90054299E-04
  -1.81200004      -2.02352181E-04
  -1.80999994       6.22546999E-04
  -1.80799997       1.34442118E-03
  -1.80599999       7.71498017E-04
  -1.80400002      -1.75731000E-03
  -1.80200005      -5.81159210E-03
  -1.79999995      -9.89892986E-03
  -1.79799998      -1.21168131E-02
  -1.79600000      -1.10947825E-02
  -1.79400003      -6.72125351E-03
  -1.79200006      -2.62532267E-04
  -1.78999996       6.18971465E-03
  -1.78799999       1.06558008E-02
  -1.78600001       1.21161873E-02
  -1.78400004       1.08626308E-02
  -1.78199995       8.20862222E-03
  -1.77999997       5.73401898E-03
  -1.77800000       4.45391843E-03
  -1.77600002       4.32243058E-03
  -1.77400005       4.30984516E-03
  -1.77199996       3.01628234E-03
  -1.76999998      -4.72963555E-04
  -1.76800001      -5.90905128E-03
  -1.76600003      -1.17335590E-02
  -1.76400006      -1.55882258E-02
  -1.76199996      -1.53023312E-02
  -1.75999999      -9.93863586E-03
  -1.75800002      -4.13975096E-04
  -1.75600004       1.06329257E-02
  -1.75399995       1.97377168E-02
  -1.75199997       2.39359308E-02
  -1.75000000       2.19676346E-02
  -1.74800003       1.48327509E-02
  -1.74600005       5.42695541E-03
  -1.74399996      -2.61910469E-03
  -1.74199998      -6.42168568E-03
  -1.74000001      -5.01904078E-03
  -1.73800004       2.68981559E-04
  -1.73599994       6.45483471E-03
  -1.73399997       1.02072414E-02
  -1.73199999       9.31094587E-03
  -1.73000002       3.63006582E-03
  -1.72800004      -4.83394554E-03
  -1.72599995      -1.28030404E-02
  -1.72399998      -1.71149988E-02
  -1.72200000      -1.60410665E-02
  -1.72000003      -9.96649731E-03
  -1.71800005      -1.16170524E-03
  -1.71599996       7.23074237E-03
  -1.71399999       1.25312489E-02
  -1.71200001       1.35881249E-02
  -1.71000004       1.11127840E-02
  -1.70799994       7.16007221E-03
  -1.70599997       4.02713614E-03
  -1.70400000       3.10896919E-03
  -1.70200002       4.26960783E-03
  -1.70000005       6.03058608E-03
  -1.69799995       6.47137174E-03
  -1.69599998       4.37147450E-03
  -1.69400001      -2.92062759E-06
  -1.69200003      -4.88860486E-03
  -1.69000006      -7.81723391E-03
  -1.68799996      -6.82847388E-03
  -1.68599999      -1.51073141E-03
  -1.68400002       6.63681189E-03
  -1.68200004       1.47022875E-02
  -1.67999995       1.95033420E-02
  -1.67799997       1.88848414E-02
  -1.67600000       1.26322750E-02
  -1.67400002       2.63663102E-03
  -1.67200005      -7.75724510E-03
  -1.66999996      -1.49739757E-02
  -1.66799998      -1.65500604E-02
  -1.66600001      -1.20814992E-02
  -1.66400003      -3.39319417E-03
  -1.66199994       6.17323630E-03
  -1.65999997       1.30989468E-02
  -1.65799999       1.51128648E-02
  -1.65600002       1.20886322E-02
  -1.65400004       6.00486482E-03
  -1.65199995      -1.85857061E-05
  -1.64999998      -3.15852650E-03
  -1.64800000      -2.12219032E-03
  -1.64600003       2.38856161E-03
  -1.64400005       8.15942604E-03
  -1.64199996       1.26015106E-02
  -1.63999999       1.39563978E-02
  -1.63800001       1.19994357E-02
  -1.63600004       7.96110835E-03
  -1.63399994       3.78906331E-03
  -1.63199997       1.16625312E-03
  -1.63000000       7.67823309E-04
  -1.62800002       2.07418017E-03
  -1.62600005       3.77319031E-03
  -1.62399995       4.51544113E-03
  -1.62199998       3.63878626E-03
  -1.62000000       1.52245932E-03
  -1.61800003      -5.94489276E-04
  -1.61600006      -1.23899907E-03
  -1.61399996       5.28940232E-04
  -1.61199999       4.57970845E-03
  -1.61000001       9.67693143E-03
  -1.60800004       1.39707988E-02
  -1.60599995       1.57910045E-02
  -1.60399997       1.43714435E-02
  -1.60200000       1.01746731E-02
  -1.60000002       4.68782615E-03
  -1.59800005      -1.93727203E-04
  -1.59599996      -2.90886243E-03
  -1.59399998      -2.78907549E-03
  -1.59200001      -2.37589178E-04
  -1.59000003       3.50196729E-03
  -1.58800006       6.86311256E-03
  -1.58599997       8.55773501E-03
  -1.58399999       8.04567151E-03
  -1.58200002       5.71192475E-03
  -1.58000004       2.68620020E-03
  -1.57799995       3.67127592E-04
  -1.57599998      -1.61240110E-04
  -1.57400000       1.41856784E-03
  -1.57200003       4.53749951E-03
  -1.57000005       8.01036693E-03
  -1.56799996       1.05690090E-02
  -1.56599998       1.14156408E-02
  -1.56400001       1.05452463E-02
  -1.56200004       8.70529562E-03
  -1.55999994       7.03553064E-03
  -1.55799997       6.55550184E-03
  -1.55599999       7.71820266E-03
  -1.55400002       1.01952069E-02
  -1.55200005       1.29626272E-02
  -1.54999995       1.46593526E-02
  -1.54799998       1.41033325E-02
  -1.54600000       1.07993223E-02
  -1.54400003       5.25452057E-03
  -1.54200006      -1.04760972E-03
  -1.53999996      -6.05585612E-03
  -1.53799999      -7.84017518E-03
  -1.53600001      -5.32051595E-03
  -1.53400004       1.24303869E-03
  -1.53199995       1.02178948E-02
  -1.52999997       1.90582443E-02
  -1.52800000       2.51172539E-02
  -1.52600002       2.65275277E-02
  -1.52400005       2.28460673E-02
  -1.52199996       1.52387489E-02
  -1.51999998       6.12627249E-03
  -1.51800001      -1.60459755E-03
  -1.51600003      -5.57690300E-03
  -1.51400006      -4.74211248E-03
  -1.51199996       2.68570759E-04
  -1.50999999       7.41800806E-03
  -1.50800002       1.40747698E-02
  -1.50600004       1.80444531E-02
  -1.50399995       1.83816012E-02
  -1.50199997       1.56446584E-02
  -1.50000000       1.15032680E-02
  -1.49800003       7.91543815E-03
  -1.49600005       6.26797602E-03
  -1.49399996       6.87545864E-03
  -1.49199998       9.00781620E-03
  -1.49000001       1.13692731E-02
  -1.48800004       1.27532305E-02
  -1.48599994       1.25678862E-02
  -1.48399997       1.10299094E-02
  -1.48199999       8.99600238E-03
  -1.48000002       7.54494034E-03
  -1.47800004       7.49280211E-03
  -1.47599995       9.02994163E-03
  -1.47399998       1.16168922E-02
  -1.47200000       1.41882803E-02
  -1.47000003       1.55931944E-02
  -1.46800005       1.51131200E-02
  -1.46599996       1.28304204E-02
  -1.46399999       9.65473987E-03
  -1.46200001       6.97677955E-03
  -1.46000004       6.06675539E-03
  -1.45799994       7.49609340E-03
  -1.45599997       1.08517045E-02
  -1.45400000       1.48967970E-02
  -1.45200002       1.81102343E-02
  -1.45000005       1.93656348E-02
  -1.44799995       1.84233822E-02
  -1.44599998       1.60258599E-02
  -1.44400001       1.35354176E-02
  -1.44200003       1.22846281E-02
  -1.44000006       1.29334517E-02
  -1.43799996       1.51185449E-02
  -1.43599999       1.75774917E-02
  -1.43400002       1.87020861E-02
  -1.43200004       1.72968265E-02
  -1.42999995       1.32116992E-02
  -1.42799997       7.54808076E-03
  -1.42600000       2.32398324E-03
  -1.42400002      -2.94889789E-04
  -1.42200005       1.12118211E-03
  -1.41999996       6.64038304E-03
  -1.41799998       1.48637276E-02
  -1.41600001       2.34004892E-02
  -1.41400003       2.97216401E-02
  -1.41199994       3.20577584E-02
  -1.40999997       3.00005712E-02
  -1.40799999       2.45947018E-02
  -1.40600002       1.79107524E-02
  -1.40400004       1.22789210E-02
  -1.40199995       9.47318785E-03
  -1.39999998       1.01274801E-02
  -1.39800000       1.35869095E-02
  -1.39600003       1.82300881E-02
  -1.39400005       2.21266001E-02
  -1.39199996       2.37826668E-02
  -1.38999999       2.26887744E-02
  -1.38800001       1.94558110E-02
  -1.38600004       1.55084934E-02
  -1.38399994       1.24751339E-02
  -1.38199997       1.15342680E-02
  -1.38000000       1.29834693E-02
  -1.37800002       1.61832049E-02
  -1.37600005       1.98729485E-02
  -1.37399995       2.26872172E-02
  -1.37199998       2.36669108E-02
  -1.37000000       2.25750133E-02
  -1.36800003       1.99450031E-02
  -1.36600006       1.68601722E-02
  -1.36399996       1.45798046E-02
  -1.36199999       1.41120497E-02
  -1.36000001       1.58744305E-02
  -1.35800004       1.95339080E-02
  -1.35599995       2.40832102E-02
  -1.35399997       2.81546656E-02
  -1.35200000       3.04709785E-02
  -1.35000002       3.02945636E-02
  -1.34800005       2.77078934E-02
  -1.34599996       2.36001536E-02
  -1.34399998       1.93521846E-02
  -1.34200001       1.63405333E-02
  -1.34000003       1.54358484E-02
  -1.33800006       1.67109817E-02
  -1.33599997       1.94654670E-02
  -1.33399999       2.25596223E-02
  -1.33200002       2.49116141E-02
  -1.33000004       2.59319562E-02
  -1.32799995       2.56976373E-02
  -1.32599998       2.48199906E-02
  -1.32400000       2.40472853E-02
  -1.32200003       2.38450635E-02
  -1.32000005       2.41666436E-02
  -1.31799996       2.45533474E-02
  -1.31599998       2.45103370E-02
  -1.31400001       2.39294190E-02
  -1.31200004       2.33016983E-02
  -1.30999994       2.35364251E-02
  -1.30799997       2.54587643E-02
  -1.30599999       2.92369090E-02
  -1.30400002       3.40528861E-02
  -1.30200005       3.82554606E-02
  -1.29999995       3.99595350E-02
  -1.29799998       3.78408320E-02
  -1.29600000       3.18007842E-02
  -1.29400003       2.31546238E-02
  -1.29200006       1.43204154E-02
  -1.28999996       8.06615129E-03
  -1.28799999       6.61157956E-03
  -1.28600001       1.08538400E-02
  -1.28400004       1.99941359E-02
  -1.28199995       3.16662639E-02
  -1.27999997       4.25867550E-02
  -1.27800000       4.95465249E-02
  -1.27600002       5.04580475E-02
  -1.27400005       4.51147370E-02
  -1.27199996       3.53316404E-02
  -1.26999998       2.44127512E-02
  -1.26800001       1.60331503E-02
  -1.26600003       1.29548479E-02
  -1.26400006       1.60758756E-02
  -1.26199996       2.41286494E-02
  -1.25999999       3.42056155E-02
  -1.25800002       4.28531170E-02
  -1.25600004       4.73256819E-02
  -1.25399995       4.65195179E-02
  -1.25199997       4.12383080E-02
  -1.25000000       3.37321721E-02
  -1.24800003       2.67434474E-02
  -1.24600005       2.24732757E-02
  -1.24399996       2.18735989E-02
  -1.24199998       2.45356783E-02
  -1.24000001       2.91318260E-02
  -1.23800004       3.41180451E-02
  -1.23599994       3.83572616E-02
  -1.23399997       4.13789265E-02
  -1.23199999       4.32295687E-02
  -1.23000002       4.40890826E-02
  -1.22800004       4.39576507E-02
  -1.22599995       4.26009595E-02
  -1.22399998       3.97621132E-02
  -1.22200000       3.55221815E-02
  -1.22000003       3.05383857E-02
  -1.21800005       2.60162763E-02
  -1.21599996       2.33827140E-02
  -1.21399999       2.37733945E-02
  -1.21200001       2.75432728E-02
  -1.21000004       3.40032466E-02
  -1.20799994       4.14849669E-02
  -1.20599997       4.77817208E-02
  -1.20400000       5.08437231E-02
  -1.20200002       4.95234653E-02
  -1.20000005       4.40888591E-02
  -1.19799995       3.62865403E-02
  -1.19599998       2.88308319E-02
  -1.19400001       2.44881772E-02
  -1.19200003       2.50800904E-02
  -1.19000006       3.07718366E-02
  -1.18799996       3.99709046E-02
  -1.18599999       4.98507395E-02
  -1.18400002       5.73392473E-02
  -1.18200004       6.01506159E-02
  -1.17999995       5.75656183E-02
  -1.17799997       5.06208539E-02
  -1.17600000       4.17349488E-02
  -1.17400002       3.38259265E-02
  -1.17200005       2.93159932E-02
  -1.16999996       2.93236040E-02
  -1.16799998       3.33495252E-02
  -1.16600001       3.96031402E-02
  -1.16400003       4.57780883E-02
  -1.16199994       4.99575362E-02
  -1.15999997       5.12673818E-02
  -1.15799999       5.00104204E-02
  -1.15600002       4.72879559E-02
  -1.15400004       4.43882085E-02
  -1.15199995       4.22213934E-02
  -1.14999998       4.10843678E-02
  -1.14800000       4.07665186E-02
  -1.14600003       4.08610441E-02
  -1.14400005       4.10886519E-02
  -1.14199996       4.14567515E-02
  -1.13999999       4.22359779E-02
  -1.13800001       4.37732637E-02
  -1.13600004       4.62119207E-02
  -1.13399994       4.92726453E-02
  -1.13199997       5.22092506E-02
  -1.13000000       5.39713502E-02
  -1.12800002       5.36132604E-02
  -1.12600005       5.07670566E-02
  -1.12399995       4.59914394E-02
  -1.12199998       4.07384820E-02
  -1.12000000       3.68853025E-02
  -1.11800003       3.60242203E-02
  -1.11600006       3.87633294E-02
  -1.11399996       4.44754921E-02
  -1.11199999       5.14820442E-02
  -1.11000001       5.77287897E-02
  -1.10800004       6.15037493E-02
  -1.10599995       6.19769134E-02
  -1.10399997       5.93839735E-02
  -1.10200000       5.48244342E-02
  -1.10000002       4.97818887E-02
  -1.09800005       4.56130058E-02
  -1.09599996       4.31254581E-02
  -1.09399998       4.23995703E-02
  -1.09200001       4.29242477E-02
  -1.09000003       4.39585596E-02
  -1.08800006       4.50344458E-02
  -1.08599997       4.62155454E-02
  -1.08399999       4.80530336E-02
  -1.08200002       5.11229448E-02
  -1.08000004       5.54423593E-02
  -1.07799995       6.01022057E-02
  -1.07599998       6.33971468E-02
  -1.07400000       6.34870157E-02
  -1.07200003       5.93226030E-02
  -1.07000005       5.13750874E-02
  -1.06799996       4.17543091E-02
  -1.06599998       3.36483642E-02
  -1.06400001       3.01748067E-02
  -1.06200004       3.31710875E-02
  -1.05999994       4.23367620E-02
  -1.05799997       5.51324226E-02
  -1.05599999       6.75222874E-02
  -1.05400002       7.53812715E-02
  -1.05200005       7.59883523E-02
  -1.04999995       6.91256002E-02
  -1.04799998       5.72311915E-02
  -1.04600000       4.45209928E-02
  -1.04400003       3.54164243E-02
  -1.04200006       3.28914151E-02
  -1.03999996       3.74490544E-02
  -1.03799999       4.71101813E-02
  -1.03600001       5.83329722E-02
  -1.03400004       6.73839524E-02
  -1.03199995       7.16292709E-02
  -1.02999997       7.01833144E-02
  -1.02800000       6.39524981E-02
  -1.02600002       5.50812185E-02
  -1.02400005       4.61760834E-02
  -1.02199996       3.95100154E-02
  -1.01999998       3.64920273E-02
  -1.01800001       3.74200456E-02
  -1.01600003       4.15549502E-02
  -1.01400006       4.75638732E-02
  -1.01199996       5.39831147E-02
  -1.00999999       5.96745498E-02
  -1.00800002       6.39233887E-02
  -1.00600004       6.63703829E-02
  -1.00399995       6.67937547E-02
  -1.00199997       6.50537908E-02
  -1.00000000       6.11469857E-02
 -0.998000026       5.55034429E-02
 -0.995999992       4.91307378E-02
 -0.994000018       4.35496978E-02
 -0.991999984       4.03426699E-02
 -0.990000010       4.06012461E-02
 -0.987999976       4.44144607E-02
 -0.986000001       5.07031940E-02
 -0.984000027       5.74867129E-02
 -0.981999993       6.24697320E-02
 -0.980000019       6.37980923E-02
 -0.977999985       6.07239604E-02
 -0.976000011       5.39890416E-02
 -0.973999977       4.56654355E-02
 -0.972000003       3.85437980E-02
 -0.970000029       3.51086557E-02
 -0.967999995       3.66095789E-02
 -0.966000021       4.25310284E-02
 -0.963999987       5.08161783E-02
 -0.962000012       5.86843565E-02
 -0.959999979       6.36736080E-02
 -0.958000004       6.45129234E-02
 -0.955999970       6.14238679E-02
 -0.953999996       5.58421090E-02
 -0.952000022       4.97305617E-02
 -0.949999988       4.48845848E-02
 -0.948000014       4.24006470E-02
 -0.945999980       4.24972102E-02
 -0.944000006       4.45385575E-02
 -0.941999972       4.73448448E-02
 -0.939999998       4.96663302E-02
 -0.938000023       5.06005809E-02
 -0.935999990       4.99881878E-02
 -0.934000015       4.83945683E-02
 -0.931999981       4.67504300E-02
 -0.930000007       4.58864905E-02
 -0.927999973       4.60641868E-02
 -0.925999999       4.68475409E-02
 -0.924000025       4.74047214E-02
 -0.921999991       4.70236987E-02
 -0.920000017       4.54849415E-02
 -0.917999983       4.32250611E-02
 -0.916000009       4.11012322E-02
 -0.913999975       3.99663672E-02
 -0.912000000       4.03055921E-02
 -0.910000026       4.20416035E-02
 -0.907999992       4.45561297E-02
 -0.906000018       4.69899997E-02
 -0.903999984       4.84724231E-02
 -0.902000010       4.84486260E-02
 -0.899999976       4.68574688E-02
 -0.898000002       4.41787206E-02
 -0.896000028       4.11946028E-02
 -0.893999994       3.87026258E-02
 -0.892000020       3.71465385E-02
 -0.889999986       3.65494564E-02
 -0.888000011       3.66038792E-02
 -0.885999978       3.69451828E-02
 -0.884000003       3.73622738E-02
 -0.882000029       3.78572568E-02
 -0.879999995       3.84088308E-02
 -0.878000021       3.88051048E-02
 -0.875999987       3.85764278E-02
 -0.874000013       3.71640883E-02
 -0.871999979       3.42756286E-02
 -0.870000005       3.01454533E-02
 -0.867999971       2.55925693E-02
 -0.865999997       2.17789151E-02
 -0.864000022       1.99078843E-02
 -0.861999989       2.08382420E-02
 -0.860000014       2.47575995E-02
 -0.857999980       3.10164075E-02
 -0.856000006       3.81002054E-02
 -0.853999972       4.39415090E-02
 -0.851999998       4.63902950E-02
 -0.850000024       4.40725833E-02
 -0.847999990       3.69647779E-02
 -0.846000016       2.66779251E-02
 -0.843999982       1.60526074E-02
 -0.842000008       8.23947601E-03
 -0.839999974       5.51978406E-03
 -0.838000000       8.55474733E-03
 -0.836000025       1.61126740E-02
 -0.833999991       2.54172198E-02
 -0.832000017       3.31684276E-02
 -0.829999983       3.65293026E-02
 -0.828000009       3.40777449E-02
 -0.825999975       2.62227226E-02
 -0.824000001       1.51977539E-02
 -0.822000027       4.27264394E-03
 -0.819999993      -3.21805803E-03
 -0.818000019      -5.03396709E-03
 -0.815999985      -8.16096319E-04
 -0.814000010       7.81442039E-03
 -0.811999977       1.78203601E-02
 -0.810000002       2.59205960E-02
 -0.808000028       2.97368728E-02
 -0.805999994       2.83839926E-02
 -0.804000020       2.26256251E-02
 -0.801999986       1.42243635E-02
 -0.800000012       5.33507112E-03
 -0.797999978      -2.20726570E-03
 -0.796000004      -7.16635399E-03
 -0.794000030      -9.14076157E-03
 -0.791999996      -8.44927318E-03
 -0.790000021      -5.91185829E-03
 -0.787999988      -2.59280670E-03
 -0.786000013       4.47032042E-04
 -0.783999979       2.41772132E-03
 -0.782000005       2.88432511E-03
 -0.779999971       1.69814622E-03
 -0.777999997      -1.04253134E-03
 -0.776000023      -4.98702982E-03
 -0.773999989      -9.52411629E-03
 -0.772000015      -1.38110407E-02
 -0.769999981      -1.68050174E-02
 -0.768000007      -1.76901221E-02
 -0.765999973      -1.62879024E-02
 -0.763999999      -1.32058356E-02
 -0.762000024      -9.78975184E-03
 -0.759999990      -7.59302406E-03
 -0.758000016      -7.86013808E-03
 -0.755999982      -1.09210489E-02
 -0.754000008      -1.61108747E-02
 -0.751999974      -2.20010374E-02
 -0.750000000      -2.69284584E-02
 -0.748000026      -2.95726955E-02
 -0.745999992      -2.94455271E-02
 -0.744000018      -2.71076672E-02
 -0.741999984      -2.39852350E-02
 -0.740000010      -2.19139885E-02
 -0.737999976      -2.24963985E-02
 -0.736000001      -2.63168812E-02
 -0.734000027      -3.26343551E-02
 -0.731999993      -3.95911112E-02
 -0.730000019      -4.48683836E-02
 -0.727999985      -4.66452166E-02
 -0.726000011      -4.44240868E-02
 -0.723999977      -3.92078497E-02
 -0.722000003      -3.31903361E-02
 -0.720000029      -2.89288219E-02
 -0.717999995      -2.83461027E-02
 -0.716000021      -3.21919844E-02
 -0.713999987      -3.98054272E-02
 -0.712000012      -4.93551902E-02
 -0.709999979      -5.84761873E-02
 -0.708000004      -6.50622770E-02
 -0.705999970      -6.78619668E-02
 -0.703999996      -6.67745546E-02
 -0.702000022      -6.28302619E-02
 -0.699999988      -5.77948317E-02
 -0.698000014      -5.34627959E-02
 -0.695999980      -5.11870310E-02
 -0.694000006      -5.15316576E-02
 -0.691999972      -5.43317050E-02
 -0.689999998      -5.89140393E-02
 -0.688000023      -6.43300936E-02