  -2.40000010       0.00000000    
  -2.39800000       0.00000000    
  -2.39599991       0.00000000    
  -2.39400005       0.00000000    
  -2.39199996       0.00000000    
  -2.39000010       0.00000000    
  -2.38800001      -6.90826410E-39
  -2.38599992       6.99356086E-21
  -2.38400006       5.47813415E-20
  -2.38199997       1.88870033E-19
  -2.38000011       3.84488696E-19
  -2.37800002       6.63831467E-19
  -2.37599993       1.59549037E-18
  -2.37400007       3.53767446E-18
  -2.37199998       1.72931103E-18
  -2.36999989      -1.80082182E-17
  -2.36800003      -6.17646499E-17
  -2.36599994      -7.43090424E-17
  -2.36400008       8.96917695E-17
  -2.36199999       5.17862762E-16
  -2.35999990       8.61478882E-16
  -2.35800004       1.19009519E-16
  -2.35599995      -2.58474751E-15
  -2.35400009      -5.93432765E-15
  -2.35200000      -4.86994012E-15
  -2.34999990       6.64920864E-15
  -2.34800005       2.66831574E-14
  -2.34599996       3.62888362E-14
  -2.34400010       5.18982338E-15
  -2.34200001      -7.72572314E-14
  -2.33999991      -1.60971673E-13
  -2.33800006      -1.32090668E-13
  -2.33599997       1.04408900E-13
  -2.33400011       4.77002606E-13
  -2.33200002       6.64414975E-13
  -2.32999992       2.48417118E-13
  -2.32800007      -8.67158071E-13
  -2.32599998      -2.04527823E-12
  -2.32399988      -2.01172347E-12
  -2.32200003       2.33641936E-13
  -2.31999993       4.08384437E-12
  -2.31800008       6.73868990E-12
  -2.31599998       4.55386857E-12
  -2.31399989      -3.76071396E-12
  -2.31200004      -1.42065344E-11
  -2.30999994      -1.80238307E-11
  -2.30800009      -7.30786438E-12
  -2.30599999       1.68160572E-11
  -2.30399990       3.99713145E-11
  -2.30200005       4.05187689E-11
  -2.29999995       5.55955715E-12
  -2.29800010      -5.27784032E-11
  -2.29600000      -9.55604207E-11
  -2.29399991      -7.83400081E-11
  -2.29200006       1.27417434E-11
  -2.28999996       1.35121248E-10
  -2.28800011       2.01068925E-10
  -2.28600001       1.31984618E-10
  -2.28399992      -7.25684096E-11
  -2.28200006      -3.02816383E-10
  -2.27999997      -3.84410614E-10
  -2.27800012      -1.93876359E-10
  -2.27600002       2.23340388E-10
  -2.27399993       6.25418495E-10
  -2.27200007       6.91428748E-10
  -2.26999998       2.42916326E-10
  -2.26799989      -5.65269831E-10
  -2.26600003      -1.24243282E-09
  -2.26399994      -1.21574473E-09
  -2.26200008      -2.37931869E-10
  -2.25999999       1.30403555E-09
  -2.25799990       2.44619103E-09
  -2.25600004       2.15973417E-09
  -2.25399995       1.02226130E-10
  -2.25200009      -2.86214052E-09
  -2.25000000      -4.84475748E-09
  -2.24799991      -3.94702049E-09
  -2.24600005       3.25390048E-10
  -2.24399996       6.13679374E-09
  -2.24200010       9.75317604E-09
  -2.24000001       7.54164375E-09
  -2.23799992      -1.31168543E-09
  -2.23600006      -1.30602285E-08
  -2.23399997      -2.02694910E-08
  -2.23200011      -1.56891655E-08
  -2.23000002       2.47913667E-09
  -2.22799993       2.71040310E-08
  -2.22600007       4.35398384E-08
  -2.22399998       3.67727360E-08
  -2.22199988       1.51007629E-09
  -2.22000003      -5.05311135E-08
  -2.21799994      -9.19541208E-08
  -2.21600008      -9.16863456E-08
  -2.21399999      -3.34331069E-08
  -2.21199989       6.90794977E-08
  -2.21000004       1.70578232E-07
  -2.20799994       2.11389249E-07
  -2.20600009       1.48082790E-07
  -2.20400000      -1.70967596E-08
  -2.20199990      -2.25612482E-07
  -2.20000005      -3.81314720E-07
  -2.19799995      -3.93921368E-07
  -2.19600010      -2.27392064E-07
  -2.19400001       7.32278380E-08
  -2.19199991       3.94824696E-07
  -2.19000006       6.06888705E-07
  -2.18799996       6.25007829E-07
  -2.18600011       4.51311593E-07
  -2.18400002       1.65569361E-07
  -2.18199992      -1.31433495E-07
  -2.18000007      -3.88800004E-07
  -2.17799997      -6.41396696E-07
  -2.17600012      -9.75188868E-07
  -2.17400002      -1.42755334E-06
  -2.17199993      -1.87599778E-06
  -2.17000008      -1.99442957E-06
  -2.16799998      -1.33814979E-06
  -2.16599989       4.42129107E-07
  -2.16400003       3.33410139E-06
  -2.16199994       6.77478283E-06
  -2.16000009       9.66147945E-06
  -2.15799999       1.06142543E-05
  -2.15599990       8.43243924E-06
  -2.15400004       2.59171429E-06
  -2.15199995      -6.40752842E-06
  -2.15000010      -1.69857231E-05
  -2.14800000      -2.67639352E-05
  -2.14599991      -3.31000010E-05
  -2.14400005      -3.37220990E-05
  -2.14199996      -2.72848956E-05
  -2.14000010      -1.37163688E-05
  -2.13800001       5.70599468E-06
  -2.13599992       2.85474744E-05
  -2.13400006       5.16337495E-05
  -2.13199997       7.16252689E-05
  -2.13000011       8.56523766E-05
  -2.12800002       9.18807273E-05
  -2.12599993       8.98548969E-05
  -2.12400007       8.04957162E-05
  -2.12199998       6.57250348E-05
  -2.11999989       4.78429720E-05
  -2.11800003       2.89154887E-05
  -2.11599994       1.04579440E-05
  -2.11400008      -6.42998566E-06
  -2.11199999      -2.05782853E-05
  -2.10999990      -3.02654207E-05
  -2.10800004      -3.31935225E-05
  -2.10599995      -2.71985664E-05
  -2.10400009      -1.15682260E-05
  -2.10200000       1.16155261E-05
  -2.09999990       3.69306872E-05
  -2.09800005       5.65117152E-05
  -2.09599996       6.24367967E-05
  -2.09400010       4.98745576E-05
  -2.09200001       1.96813889E-05
  -2.08999991      -2.08826714E-05
  -2.08800006      -6.00079256E-05
  -2.08599997      -8.53548117E-05
  -2.08400011      -8.87756905E-05
  -2.08200002      -6.97724463E-05
  -2.07999992      -3.60840313E-05
  -2.07800007      -9.30909209E-07
  -2.07599998       2.21216942E-05
  -2.07399988       2.46284035E-05
  -2.07200003       6.77135949E-06
  -2.06999993      -2.26081629E-05
  -2.06800008      -4.95294844E-05
  -2.06599998      -6.05256901E-05
  -2.06399989      -4.81215066E-05
  -2.06200004      -1.39138974E-05
  -2.05999994       3.19612445E-05
  -2.05800009       7.47194790E-05
  -2.05599999       1.00599456E-04
  -2.05399990       1.02093953E-04
  -2.05200005       8.07549222E-05
  -2.04999995       4.65550438E-05
  -2.04800010       1.40807388E-05
  -2.04600000      -3.03114848E-06
  -2.04399991       2.60872548E-06
  -2.04200006       2.90431417E-05
  -2.03999996       6.52687231E-05
  -2.03800011       9.49873938E-05
  -2.03600001       1.02640042E-04
  -2.03399992       7.96449676E-05
  -2.03200006       2.85031529E-05
  -2.02999997      -3.70028356E-05
  -2.02800012      -9.59833997E-05
  -2.02600002      -1.27798354E-04
  -2.02399993      -1.20002944E-04
  -2.02200007      -7.37678056E-05
  -2.01999998      -4.36435676E-06
  -2.01799989       6.38935599E-05
  -2.01600003       1.06613268E-04
  -2.01399994       1.08794251E-04
  -2.01200008       7.09591186E-05
  -2.00999999       9.27227484E-06
  -2.00799990      -5.06292927E-05
  -2.00600004      -8.37324478E-05
  -2.00399995      -7.55924557E-05
  -2.00200009      -2.80389722E-05
  -2.00000000       4.16938674E-05
  -1.99800003       1.07990192E-04
  -1.99600005       1.47046027E-04
  -1.99399996       1.46011240E-04
  -1.99199998       1.07446525E-04
  -1.99000001       4.75573288E-05
  -1.98800004      -1.07067026E-05
  -1.98599994      -4.66046477E-05
  -1.98399997      -4.89673985E-05
  -1.98199999      -1.93109263E-05
  -1.98000002       3.00041938E-05
  -1.97800004       8.12722574E-05
  -1.97599995       1.18089978E-04
  -1.97399998       1.30589484E-04
  -1.97200000       1.17639414E-04
  -1.97000003       8.57856940E-05
  -1.96800005       4.59084149E-05
  -1.96599996       9.16302088E-06
  -1.96399999      -1.63356290E-05
  -1.96200001      -2.72280668E-05
  -1.96000004      -2.49034729E-05
  -1.95799994      -1.42144718E-05
  -1.95599997      -1.59033698E-06
  -1.95400000       6.84645511E-06
  -1.95200002       6.78403103E-06
  -1.95000005      -3.30687635E-06
  -1.94799995      -2.17682791E-05
  -1.94599998      -4.39385840E-05
  -1.94400001      -6.29581627E-05
  -1.94200003      -7.11805769E-05
  -1.94000006      -6.20247520E-05
  -1.93799996      -3.19024984E-05
  -1.93599999       1.82995900E-05
  -1.93400002       8.27113836E-05
  -1.93200004       1.51284257E-04
  -1.92999995       2.11896448E-04
  -1.92799997       2.53327889E-04
  -1.92600000       2.68318894E-04
  -1.92400002       2.55770254E-04
  -1.92200005       2.21276234E-04
  -1.91999996       1.75626643E-04
  -1.91799998       1.31575434E-04
  -1.91600001       9.98461983E-05
  -1.91400003       8.57437699E-05
  -1.91199994       8.76405320E-05
  -1.90999997       9.79608085E-05
  -1.90799999       1.06314903E-04
  -1.90600002       1.03548351E-04
  -1.90400004       8.50973083E-05
  -1.90199995       5.23725030E-05
  -1.89999998       1.17854070E-05
  -1.89800000      -2.79566320E-05
  -1.89600003      -5.90048330E-05
  -1.89400005      -7.66788653E-05
  -1.89199996      -8.01979477E-05
  -1.88999999      -7.18897645E-05
  -1.88800001      -5.55514634E-05
  -1.88600004      -3.48297981E-05
  -1.88399994      -1.22644424E-05
  -1.88199997       1.08056120E-05
  -1.88000000       3.36919184E-05
  -1.87800002       5.56149171E-05
  -1.87600005       7.52276828E-05
  -1.87399995       9.06845089E-05
  -1.87199998       1.00255740E-04
  -1.87000000       1.03208484E-04
  -1.86800003       1.00491452E-04
  -1.86600006       9.47787630E-05
  -1.86399996       8.96763013E-05
  -1.86199999       8.83003231E-05
  -1.86000001       9.18121150E-05
  -1.85800004       9.86233645E-05
  -1.85599995       1.04761166E-04
  -1.85399997       1.05376464E-04
  -1.85200000       9.68311870E-05
  -1.85000002       7.84879594E-05
  -1.84800005       5.34086103E-05
  -1.84599996       2.76115788E-05
  -1.84399998       8.13534280E-06
  -1.84200001       6.44718966E-07
  -1.84000003       7.50113031E-06
  -1.83800006       2.70370601E-05
  -1.83599997       5.43034876E-05
  -1.83399999       8.29763303E-05
  -1.83200002       1.07637279E-04
  -1.83000004       1.25486171E-04
  -1.82799995       1.36794159E-04
  -1.82599998       1.43989324E-04
  -1.82400000       1.49923973E-04
  -1.82200003       1.56268303E-04
  -1.82000005       1.62870201E-04
  -1.81799996       1.68342987E-04
  -1.81599998       1.71404870E-04
  -1.81400001       1.72036453E-04
  -1.81200004       1.71644046E-04
  -1.80999994       1.72064232E-04
  -1.80799997       1.74031185E-04
  -1.80599999       1.76147107E-04
  -1.80400002       1.75161302E-04
  -1.80200005       1.67592385E-04
  -1.79999995       1.51881861E-04
  -1.79799998       1.29866137E-04
  -1.79600000       1.06654523E-04
  -1.79400003       8.88384893E-05
  -1.79200006       8.18547051E-05
  -1.78999996       8.77818820E-05
  -1.78799999       1.04627397E-04
  -1.78600001       1.27399384E-04
  -1.78400004       1.50378182E-04
  -1.78199995       1.69449442E-04
  -1.77999997       1.83392112E-04
  -1.77800000       1.93580039E-04
  -1.77600002       2.02356401E-04
  -1.77400005       2.10988655E-04
  -1.77199996       2.18314788E-04
  -1.76999998       2.20858128E-04
  -1.76800001       2.14476095E-04
  -1.76600003       1.96833484E-04
  -1.76400006       1.69511695E-04
  -1.76199996       1.38621152E-04
  -1.75999999       1.13380192E-04
  -1.75800002       1.03027574E-04
  -1.75600004       1.13246526E-04
  -1.75399995       1.43617188E-04
  -1.75199997       1.87290832E-04
  -1.75000000       2.33194383E-04
  -1.74800003       2.69994809E-04
  -1.74600005       2.90254509E-04
  -1.74399996       2.93062330E-04
  -1.74199998       2.84021517E-04
  -1.74000001       2.72580801E-04
  -1.73800004       2.67830794E-04
  -1.73599994       2.74554593E-04
  -1.73399997       2.91216653E-04
  -1.73199999       3.10734846E-04
  -1.73000002       3.23675864E-04
  -1.72800004       3.22472013E-04
  -1.72599995       3.04835034E-04
  -1.72399998       2.74916994E-04
  -1.72200000       2.41760921E-04
  -1.72000003       2.15753360E-04
  -1.71800005       2.04625161E-04
  -1.71599996       2.10694183E-04
  -1.71399999       2.30456208E-04
  -1.71200001       2.56575586E-04
  -1.71000004       2.81276472E-04
  -1.70799994       2.99549371E-04
  -1.70599997       3.10736563E-04
  -1.70400000       3.17872647E-04
  -1.70200002       3.25251254E-04
  -1.70000005       3.35551420E-04
  -1.69799995       3.48053407E-04
  -1.69599998       3.58896301E-04
  -1.69400001       3.63264844E-04
  -1.69200003       3.58373276E-04
  -1.69000006       3.45667475E-04
  -1.68799996       3.31021787E-04
  -1.68599999       3.22682550E-04
  -1.68400002       3.27808608E-04
  -1.68200004       3.49147711E-04
  -1.67999995       3.83353356E-04
  -1.67799997       4.21741541E-04
  -1.67600000       4.53258632E-04
  -1.67400002       4.68527578E-04
  -1.67200005       4.63406992E-04
  -1.66999996       4.40675707E-04
  -1.66799998       4.09151689E-04
  -1.66600001       3.80520127E-04
  -1.66400003       3.65045416E-04
  -1.66199994       3.67825472E-04
  -1.65999997       3.87097680E-04
  -1.65799999       4.15309478E-04
  -1.65600002       4.42510995E-04
  -1.65400004       4.60604439E-04
  -1.65199995       4.66590689E-04
  -1.64999998       4.63413540E-04
  -1.64800000       4.58132883E-04
  -1.64600003       4.58399241E-04
  -1.64400005       4.68947226E-04
  -1.64199996       4.89708153E-04
  -1.63999999       5.16266096E-04
  -1.63800001       5.42221940E-04
  -1.63600004       5.62182453E-04
  -1.63399994       5.73932601E-04
  -1.63199997       5.78887993E-04
  -1.63000000       5.80822118E-04
  -1.62800002       5.83664107E-04
  -1.62600005       5.89511474E-04
  -1.62399995       5.97800128E-04
  -1.62199998       6.05954323E-04
  -1.62000000       6.11115596E-04
  -1.61800003       6.12043543E-04
  -1.61600006       6.10210118E-04
  -1.61399996       6.09500043E-04
  -1.61199999       6.14608754E-04
  -1.61000001       6.28865382E-04
  -1.60800004       6.52513118E-04
  -1.60599995       6.82274927E-04
  -1.60399997       7.12437322E-04
  -1.60200000       7.36983435E-04
  -1.60000002       7.51846004E-04
  -1.59800005       7.56340043E-04
  -1.59599996       7.53237458E-04
  -1.59399998       7.47539452E-04
  -1.59200001       7.44512770E-04
  -1.59000003       7.47777231E-04
  -1.58800006       7.58142327E-04
  -1.58599997       7.73563108E-04
  -1.58399999       7.90166669E-04
  -1.58200002       8.03924166E-04
  -1.58000004       8.12322309E-04
  -1.57799995       8.15375650E-04
  -1.57599998       8.15581589E-04
  -1.57400000       8.16838874E-04
  -1.57200003       8.22794973E-04
  -1.57000005       8.35342798E-04
  -1.56799996       8.53922102E-04
  -1.56599998       8.75906844E-04
  -1.56400001       8.97867663E-04
  -1.56200004       9.17118217E-04
  -1.55999994       9.32859082E-04
  -1.55799997       9.46450164E-04
  -1.55599999       9.60723730E-04
  -1.55400002       9.78637370E-04
  -1.55200005       1.00179506E-03
  -1.54999995       1.02941704E-03
  -1.54799998       1.05817965E-03
  -1.54600000       1.08308229E-03
  -1.54400003       1.09913619E-03
  -1.54200006       1.10334309E-03
  -1.53999996       1.09623978E-03
  -1.53799999       1.08234375E-03
  -1.53600001       1.06918300E-03
  -1.53400004       1.06510543E-03
  -1.53199995       1.07656640E-03
  -1.52999997       1.10584265E-03
  -1.52800000       1.15001795E-03
  -1.52600002       1.20166270E-03
  -1.52400005       1.25103630E-03
  -1.52199996       1.28912122E-03
  -1.51999998       1.31048623E-03
  -1.51800001       1.31500792E-03
  -1.51600003       1.30782637E-03
  -1.51400006       1.29750720E-03
  -1.51199996       1.29303394E-03
  -1.50999999       1.30072027E-03
  -1.50800002       1.32221309E-03
  -1.50600004       1.35433231E-03
  -1.50399995       1.39075844E-03
  -1.50199997       1.42478466E-03
  -1.50000000       1.45193248E-03
  -1.49800003       1.47135125E-03
  -1.49600005       1.48553471E-03
  -1.49399996       1.49867800E-03
  -1.49199998       1.51456124E-03
  -1.49000001       1.53493846E-03
  -1.48800004       1.55906077E-03
  -1.48599994       1.58438203E-03
  -1.48399997       1.60797965E-03
  -1.48199999       1.62800564E-03
  -1.48000002       1.64454652E-03
  -1.47800004       1.65958446E-03
  -1.47599995       1.67610717E-03
  -1.47399998       1.69675378E-03
  -1.47200000       1.72255898E-03
  -1.47000003       1.75234023E-03
  -1.46800005       1.78304676E-03
  -1.46599996       1.81099027E-03
  -1.46399999       1.83347543E-03
  -1.46200001       1.85010664E-03
  -1.46000004       1.86315039E-03
  -1.45799994       1.87671313E-03
  -1.45599997       1.89506100E-03
  -1.45400000       1.92080962E-03
  -1.45200002       1.95381651E-03
  -1.45000005       1.99129246E-03
  -1.44799995       2.02908134E-03
  -1.44599998       2.06353096E-03
  -1.44400001       2.09309207E-03
  -1.44200003       2.11891229E-03
  -1.44000006       2.14412995E-03
  -1.43799996       2.17218208E-03
  -1.43599999       2.20487779E-03
  -1.43400002       2.24115769E-03
  -1.43200004       2.27715634E-03
  -1.42999995       2.30766530E-03
  -1.42799997       2.32842518E-03
  -1.42600000       2.33829697E-03
  -1.42400002       2.34032609E-03
  -1.42200005       2.34115217E-03
  -1.41999996       2.34891381E-03
  -1.41799998       2.37041805E-03
  -1.41600001       2.40868237E-03
  -1.41400003       2.46180431E-03
  -1.41199994       2.52358383E-03
  -1.40999997       2.58564227E-03
  -1.40799999       2.64023803E-03
  -1.40600002       2.68274313E-03
  -1.40400004       2.71293288E-03
  -1.40199995       2.73468485E-03
  -1.39999998       2.75428570E-03
  -1.39800000       2.77799950E-03
  -1.39600003       2.80981674E-03
  -1.39400005       2.85017397E-03
  -1.39199996       2.89608305E-03
  -1.38999999       2.94255442E-03
  -1.38800001       2.98469886E-03
  -1.38600004       3.01966351E-03
  -1.38399994       3.04764719E-03
  -1.38199997       3.07165645E-03
  -1.38000000       3.09617445E-03
  -1.37800002       3.12534091E-03
  -1.37600005       3.16139683E-03
  -1.37399995       3.20395734E-03
  -1.37199998       3.25031136E-03
  -1.37000000       3.29655339E-03
  -1.36800003       3.33907362E-03
  -1.36600006       3.37587856E-03
  -1.36399996       3.40731861E-03
  -1.36199999       3.43601033E-03
  -1.36000001       3.46599706E-03
  -1.35800004       3.50140547E-03
  -1.35599995       3.54502210E-03
  -1.35399997       3.59725999E-03
  -1.35200000       3.65588535E-03
  -1.35000002       3.71665135E-03
  -1.34800005       3.77465389E-03
  -1.34599996       3.82596161E-03
  -1.34399998       3.86891421E-03
  -1.34200001       3.90460691E-03
  -1.34000003       3.93638294E-03
  -1.33800006       3.96852940E-03
  -1.33599997       4.00470570E-03
  -1.33399999       4.04673070E-03
  -1.33200002       4.09420254E-03
  -1.33000004       4.14504623E-03
  -1.32799995       4.19667549E-03
  -1.32599998       4.24719322E-03
  -1.32400000       4.29606065E-03
  -1.32200003       4.34395345E-03
  -1.32000005       4.39196452E-03
  -1.31799996       4.44068480E-03
  -1.31599998       4.48974874E-03
  -1.31400001       4.53818822E-03
  -1.31200004       4.58541885E-03
  -1.30999994       4.63225739E-03
  -1.30799997       4.68125241E-03
  -1.30599999       4.73594898E-03
  -1.30400002       4.79923841E-03
  -1.30200005       4.87154676E-03
  -1.29999995       4.94976202E-03
  -1.29799998       5.02756285E-03
  -1.29600000       5.09720389E-03
  -1.29400003       5.15215890E-03
  -1.29200006       5.18963393E-03
  -1.28999996       5.21202013E-03
  -1.28799999       5.22669777E-03
  -1.28600001       5.24416286E-03
  -1.28400004       5.27501153E-03
  -1.28199995       5.32667153E-03
  -1.27999997       5.40092494E-03
  -1.27800000       5.49305836E-03
  -1.27600002       5.59306238E-03
  -1.27400005       5.68863563E-03
  -1.27199996       5.76908188E-03
  -1.26999998       5.82882576E-03
  -1.26800001       5.86927217E-03
  -1.26600003       5.89825958E-03
  -1.26400006       5.92729030E-03
  -1.26199996       5.96749503E-03
  -1.25999999       6.02582982E-03
  -1.25800002       6.10288838E-03
  -1.25600004       6.19306741E-03
  -1.25399995       6.28691260E-03
  -1.25199997       6.37467019E-03
  -1.25000000       6.44964119E-03
  -1.24800003       6.51011616E-03
  -1.24600005       6.55933330E-03
  -1.24399996       6.60368055E-03
  -1.24199998       6.65009022E-03
  -1.24000001       6.70375722E-03
  -1.23800004       6.76700659E-03
  -1.23599994       6.83948211E-03
  -1.23399997       6.91921823E-03
  -1.23199999       7.00382702E-03
  -1.23000002       7.09114503E-03
  -1.22800004       7.17919227E-03
  -1.22599995       7.26575125E-03
  -1.22399998       7.34811416E-03
  -1.22200000       7.42339855E-03
  -1.22000003       7.48945819E-03
  -1.21800005       7.54601415E-03
  -1.21599996       7.59541243E-03
  -1.21399999       7.64256855E-03
  -1.21200001       7.69388629E-03
  -1.21000004       7.75543274E-03
  -1.20799994       7.83092156E-03
  -1.20599997       7.92018697E-03
  -1.20400000       8.01881216E-03
  -1.20200002       8.11918080E-03
  -1.20000005       8.21279269E-03
  -1.19799995       8.29316769E-03
  -1.19599998       8.35828483E-03
  -1.19400001       8.41160584E-03
  -1.19200003       8.46117362E-03
  -1.19000006       8.51702597E-03
  -1.18799996       8.58776830E-03
  -1.18599999       8.67758971E-03
  -1.18400002       8.78477935E-03
  -1.18200004       8.90227035E-03
  -1.17999995       9.01998766E-03
  -1.17799997       9.12817195E-03
  -1.17600000       9.22052749E-03
  -1.17400002       9.29608848E-03
  -1.17200005       9.35923122E-03
  -1.16999996       9.41787008E-03
  -1.16799998       9.48054343E-03
  -1.16600001       9.55349579E-03
  -1.16400003       9.63887665E-03
  -1.16199994       9.73461103E-03
  -1.15999997       9.83583648E-03
  -1.15799999       9.93711501E-03
  -1.15600002       1.00344131E-02
  -1.15400004       1.01260887E-02
  -1.15199995       1.02126990E-02
  -1.14999998       1.02960048E-02
  -1.14800000       1.03778560E-02
  -1.14600003       1.04594827E-02
  -1.14400005       1.05414344E-02
  -1.14199996       1.06239775E-02
  -1.13999999       1.07076708E-02
  -1.13800001       1.07936785E-02
  -1.13600004       1.08836656E-02
  -1.13399994       1.09791495E-02
  -1.13199997       1.10806320E-02
  -1.13000000       1.11868121E-02
  -1.12800002       1.12943966E-02
  -1.12600005       1.13987774E-02
  -1.12399995       1.14955343E-02
  -1.12199998       1.15822647E-02
  -1.12000000       1.16598886E-02
  -1.11800003       1.17327981E-02
  -1.11600006       1.18075870E-02
  -1.11399996       1.18908258E-02
  -1.11199999       1.19867846E-02
  -1.11000001       1.20959952E-02
  -1.10800004       1.22152288E-02
  -1.10599995       1.23387091E-02
  -1.10399997       1.24600707E-02
  -1.10200000       1.25742787E-02
  -1.10000002       1.26788849E-02
  -1.09800005       1.27742803E-02
  -1.09599996       1.28630185E-02
  -1.09399998       1.29485428E-02
  -1.09200001       1.30338687E-02
  -1.09000003       1.31207509E-02
  -1.08800006       1.32097434E-02
  -1.08599997       1.33009925E-02
  -1.08399999       1.33952629E-02
  -1.08200002       1.34944385E-02
  -1.08000004       1.36010041E-02
  -1.07799995       1.37165487E-02
  -1.07599998       1.38400476E-02
  -1.07400000       1.39669310E-02
  -1.07200003       1.40897417E-02
  -1.07000005       1.42004397E-02
  -1.06799996       1.42935691E-02
  -1.06599998       1.43689699E-02
  -1.06400001       1.44327953E-02
  -1.06200004       1.44961402E-02
  -1.05999994       1.45716481E-02
  -1.05799997       1.46691175E-02
  -1.05599999       1.47917718E-02
  -1.05400002       1.49346748E-02
  -1.05200005       1.50860436E-02
  -1.04999995       1.52311577E-02
  -1.04799998       1.53575176E-02
  -1.04600000       1.54592693E-02
  -1.04400003       1.55392066E-02
  -1.04200006       1.56075144E-02
  -1.03999996       1.56778563E-02
  -1.03799999       1.57624148E-02
  -1.03600001       1.58678591E-02
  -1.03400004       1.59935746E-02
  -1.03199995       1.61325894E-02
  -1.02999997       1.62744001E-02
  -1.02800000       1.64085366E-02
  -1.02600002       1.65275689E-02
  -1.02400005       1.66288260E-02
  -1.02199996       1.67145114E-02
  -1.01999998       1.67905129E-02
  -1.01800001       1.68644264E-02
  -1.01600003       1.69434007E-02
  -1.01400006       1.70325208E-02
  -1.01199996       1.71340667E-02
  -1.00999999       1.72477234E-02
  -1.00800002       1.73713211E-02
  -1.00600004       1.75016131E-02
  -1.00399995       1.76347811E-02
  -1.00199997       1.77666266E-02
  -1.00000000       1.78928263E-02
 -0.998000026       1.80094782E-02
 -0.995999992       1.81141105E-02
 -0.994000018       1.82067920E-02
 -0.991999984       1.82906836E-02
 -0.990000010       1.83716286E-02
 -0.987999976       1.84566434E-02
 -0.986000001       1.85517594E-02
 -0.984000027       1.86599512E-02
 -0.981999993       1.87799055E-02
 -0.980000019       1.89061742E-02
 -0.977999985       1.90306958E-02
 -0.976000011       1.91454086E-02
 -0.973999977       1.92450639E-02
 -0.972000003       1.93292741E-02
 -0.970000029       1.94029249E-02
 -0.967999995       1.94746442E-02
 -0.966000021       1.95537843E-02
 -0.963999987       1.96471307E-02
 -0.962000012       1.97566301E-02
 -0.959999979       1.98789872E-02
 -0.958000004       2.00071745E-02
 -0.955999970       2.01331098E-02
 -0.953999996       2.02503763E-02
 -0.952000022       2.03559492E-02
 -0.949999988       2.04505641E-02
 -0.948000014       2.05378495E-02
 -0.945999980       2.06227489E-02
 -0.944000006       2.07097847E-02
 -0.941999972       2.08016690E-02
 -0.939999998       2.08986811E-02
 -0.938000023       2.09989473E-02
 -0.935999990       2.10995357E-02
 -0.934000015       2.11979188E-02
 -0.931999981       2.12930664E-02
 -0.930000007       2.13857014E-02
 -0.927999973       2.14776509E-02
 -0.925999999       2.15705633E-02
 -0.924000025       2.16648169E-02
 -0.921999991       2.17592455E-02
 -0.920000017       2.18517520E-02
 -0.917999983       2.19404660E-02
 -0.916000009       2.20247917E-02
 -0.913999975       2.21058596E-02
 -0.912000000       2.21861303E-02
 -0.910000026       2.22684778E-02
 -0.907999992       2.23550759E-02
 -0.906000018       2.24466212E-02
 -0.903999984       2.25420836E-02
 -0.902000010       2.26390045E-02
 -0.899999976       2.27343105E-02
 -0.898000002       2.28253473E-02
 -0.896000028       2.29107197E-02
 -0.893999994       2.29906160E-02
 -0.892000020       2.30664648E-02
 -0.889999986       2.31401604E-02
 -0.888000011       2.32133139E-02
 -0.885999978       2.32868623E-02
 -0.884000003       2.33611725E-02
 -0.882000029       2.34363917E-02
 -0.879999995       2.35126577E-02
 -0.878000021       2.35898718E-02
 -0.875999987       2.36672498E-02
 -0.874000013       2.37429943E-02
 -0.871999979       2.38144342E-02
 -0.870000005       2.38788556E-02
 -0.867999971       2.39345934E-02
 -0.865999997       2.39819661E-02
 -0.864000022       2.40236521E-02
 -0.861999989       2.40643956E-02
 -0.860000014       2.41099931E-02
 -0.857999980       2.41657645E-02
 -0.856000006       2.42348798E-02
 -0.853999972       2.43169218E-02
 -0.851999998       2.44072545E-02
 -0.850000024       2.44977176E-02
 -0.847999990       2.45787557E-02
 -0.846000016       2.46424004E-02
 -0.843999982       2.46851295E-02
 -0.842000008       2.47094184E-02
 -0.839999974       2.47231796E-02
 -0.838000000       2.47372538E-02
 -0.836000025       2.47619227E-02
 -0.833999991       2.48034485E-02
 -0.832000017       2.48620342E-02
 -0.829999983       2.49317326E-02
 -0.828000009       2.50023417E-02
 -0.825999975       2.50626393E-02
 -0.824000001       2.51040589E-02
 -0.822000027       2.51235291E-02
 -0.819999993       2.51245853E-02
 -0.818000019       2.51163300E-02
 -0.815999985       2.51104832E-02
 -0.814000010       2.51174830E-02
 -0.811999977       2.51431130E-02
 -0.810000002       2.51868553E-02
 -0.808000028       2.52425112E-02
 -0.805999994       2.53006350E-02
 -0.804000020       2.53516436E-02
 -0.801999986       2.53884941E-02
 -0.800000012       2.54080519E-02
 -0.797999978       2.54111812E-02
 -0.796000004       2.54018065E-02
 -0.794000030       2.53854990E-02
 -0.791999996       2.53679100E-02
 -0.790000021       2.53535472E-02
 -0.787999988       2.53450461E-02
 -0.786000013       2.53429003E-02
 -0.783999979       2.53457613E-02
 -0.782000005       2.53510643E-02
 -0.779999971       2.53556464E-02
 -0.777999997       2.53563020E-02
 -0.776000023       2.53502708E-02
 -0.773999989       2.53357608E-02
 -0.772000015       2.53124237E-02
 -0.769999981       2.52818093E-02
 -0.768000007       2.52473149E-02
 -0.765999973       2.52133347E-02
 -0.763999999       2.51838434E-02
 -0.762000024       2.51608435E-02
 -0.759999990       2.51434669E-02
 -0.758000016       2.51280107E-02
 -0.755999982       2.51092333E-02
 -0.754000008       2.50821970E-02
 -0.751999974       2.50440873E-02
 -0.750000000       2.49951575E-02
 -0.748000026       2.49386616E-02
 -0.745999992       2.48796418E-02
 -0.744000018       2.48230863E-02
 -0.741999984       2.47719921E-02
 -0.740000010       2.47260928E-02
 -0.737999976       2.46816818E-02
 -0.736000001       2.46328674E-02
 -0.734000027       2.45739147E-02
 -0.731999993       2.45016925E-02
 -0.730000019       2.44172327E-02
 -0.727999985       2.43257172E-02
 -0.726000011       2.42346488E-02
 -0.723999977       2.41510160E-02
 -0.722000003       2.40786187E-02
 -0.720000029       2.40165014E-02
 -0.717999995       2.39592232E-02
 -0.716000021       2.38986872E-02
 -0.713999987       2.38266904E-02
 -0.712000012       2.37375293E-02
 -0.709999979       2.36296970E-02
 -0.708000004       2.35061571E-02
 -0.705999970       2.33732332E-02
 -0.703999996       2.32385956E-02
 -0.702000022       2.31089890E-02
 -0.699999988       2.29883660E-02
 -0.698000014       2.28771064E-02
 -0.695999980       2.27724575E-02
 -0.694000006       2.26697400E-02
 -0.691999972       2.25638747E-02
 -0.689999998       2.24506296E-02
 -0.688000023       2.23273858E-02