  -2.40000010       0.00000000    
  -2.39800000       0.00000000    
  -2.39599991       0.00000000    
  -2.39400005       0.00000000    
  -2.39199996       0.00000000    
  -2.39000010       0.00000000    
  -2.38800001      -9.24810846E-22
  -2.38599992      -1.20983243E-20
  -2.38400006      -7.77137543E-20
  -2.38199997      -3.16234095E-19
  -2.38000011      -8.78534880E-19
  -2.37800002      -1.64574159E-18
  -2.37599993      -1.71655497E-18
  -2.37400007       5.86573315E-19
  -2.37199998       6.23313762E-18
  -2.36999989       1.32138356E-17
  -2.36800003       1.64853192E-17
  -2.36599994       1.07993557E-17
  -2.36400008      -1.10072982E-17
  -2.36199999      -6.98422671E-17
  -2.35999990      -1.95212335E-16
  -2.35800004      -3.38823502E-16
  -2.35599995      -2.06795921E-16
  -2.35400009       7.48782790E-16
  -2.35200000       2.72597310E-15
  -2.34999990       4.27484992E-15
  -2.34800005       1.52124989E-15
  -2.34599996      -9.56068280E-15
  -2.34400010      -2.64049917E-14
  -2.34200001      -3.25825962E-14
  -2.33999991      -8.84199588E-16
  -2.33800006       8.26799499E-14
  -2.33599997       1.79956473E-13
  -2.33400011       1.81607645E-13
  -2.33200002      -4.18730873E-14
  -2.32999992      -5.02317751E-13
  -2.32800007      -9.42873058E-13
  -2.32599998      -8.40015774E-13
  -2.32399988       2.88816659E-13
  -2.32200003       2.31900436E-12
  -2.31999993       4.06445190E-12
  -2.31800008       3.50704578E-12
  -2.31599998      -9.43493872E-13
  -2.31399989      -8.55594241E-12
  -2.31200004      -1.50541767E-11
  -2.30999994      -1.36972621E-11
  -2.30800009       6.33691233E-13
  -2.30599999       2.58008354E-11
  -2.30399990       4.89767532E-11
  -2.30200005       4.97426232E-11
  -2.29999995       1.14441893E-11
  -2.29800010      -6.30101110E-11
  -2.29600000      -1.40557344E-10
  -2.29399991      -1.64050468E-10
  -2.29200006      -8.05569569E-11
  -2.28999996       1.16117865E-10
  -2.28800011       3.52183782E-10
  -2.28600001       4.80299411E-10
  -2.28399992       3.44166695E-10
  -2.28200006      -1.12993490E-10
  -2.27999997      -7.51225637E-10
  -2.27800012      -1.22559696E-09
  -2.27600002      -1.12135889E-09
  -2.27399993      -2.10155060E-10
  -2.27200007       1.29586297E-09
  -2.26999998       2.67599742E-09
  -2.26799989       2.95762836E-09
  -2.26600003       1.46645762E-09
  -2.26399994      -1.58635083E-09
  -2.26200008      -4.87612528E-09
  -2.25999999      -6.40359898E-09
  -2.25799990      -4.56198102E-09
  -2.25600004       6.63497923E-10
  -2.25399995       7.13753678E-09
  -2.25200009       1.12635998E-08
  -2.25000000       9.86857085E-09
  -2.24799991       2.38673925E-09
  -2.24600005      -8.04999978E-09
  -2.24399996      -1.56872630E-08
  -2.24200010      -1.52856074E-08
  -2.24000001      -5.75030867E-09
  -2.23799992       8.12747292E-09
  -2.23600006       1.75788966E-08
  -2.23399997       1.51210635E-08
  -2.23200011       4.05283807E-10
  -2.23000002      -1.73983956E-08
  -2.22799993      -2.35318378E-08
  -2.22600007      -7.13801418E-09
  -2.22399998       2.86914954E-08
  -2.22199988       6.34224051E-08
  -2.22000003       6.70710065E-08
  -2.21799994       1.82758253E-08
  -2.21600008      -7.64519541E-08
  -2.21399999      -1.75106720E-07
  -2.21199989      -2.13561322E-07
  -2.21000004      -1.38523347E-07
  -2.20799994       5.45663781E-08
  -2.20600009       3.01102659E-07
  -2.20400000       4.82476537E-07
  -2.20199990       4.78011032E-07
  -2.20000005       2.32611683E-07
  -2.19799995      -1.95851825E-07
  -2.19600010      -6.41917438E-07
  -2.19400001      -8.99051145E-07
  -2.19199991      -8.21250808E-07
  -2.19000006      -4.07744523E-07
  -2.18799996       1.80950266E-07
  -2.18600011       6.95830465E-07
  -2.18400002       9.31662782E-07
  -2.18199992       8.48287016E-07
  -2.18000007       6.04731781E-07
  -2.17799997       4.69247908E-07
  -2.17600012       6.37367975E-07
  -2.17400002       1.05283448E-06
  -2.17199993       1.34439335E-06
  -2.17000008       9.46837702E-07
  -2.16799998      -6.17205842E-07
  -2.16599989      -3.41252598E-06
  -2.16400003      -6.88591626E-06
  -2.16199994      -9.90682747E-06
  -2.16000009      -1.10760484E-05
  -2.15799999      -9.20021648E-06
  -2.15599990      -3.74983051E-06
  -2.15400004       4.87540910E-06
  -2.15199995       1.53618967E-05
  -2.15000010       2.57449392E-05
  -2.14800000       3.37987331E-05
  -2.14599991       3.74238771E-05
  -2.14400005       3.49644288E-05
  -2.14199996       2.54666156E-05
  -2.14000010       8.92320077E-06
  -2.13800001      -1.34995198E-05
  -2.13599992      -3.93516348E-05
  -2.13400006      -6.50722504E-05
  -2.13199997      -8.65686161E-05
  -2.13000011      -1.00156540E-04
  -2.12800002      -1.03592458E-04
  -2.12599993      -9.67798405E-05
  -2.12400007      -8.17837645E-05
  -2.12199998      -6.20598512E-05
  -2.11999989      -4.11889960E-05
  -2.11800003      -2.17025590E-05
  -2.11599994      -4.59549301E-06
  -2.11400008       1.02017830E-05
  -2.11199999       2.26515713E-05
  -2.10999990       3.14539684E-05
  -2.10800004       3.37295132E-05
  -2.10599995       2.59931512E-05
  -2.10400009       6.17115529E-06
  -2.10200000      -2.42746537E-05
  -2.09999990      -5.93309887E-05
  -2.09800005      -8.93936740E-05
  -2.09599996      -1.04195708E-04
  -2.09400010      -9.66844746E-05
  -2.09200001      -6.62029488E-05
  -2.08999991      -1.94504482E-05
  -2.08800006       3.14231729E-05
  -2.08599997       7.29789244E-05
  -2.08400011       9.52507107E-05
  -2.08200002       9.51373659E-05
  -2.07999992       7.70337065E-05
  -2.07800007       5.05192183E-05
  -2.07599998       2.61876612E-05
  -2.07399988       1.14351024E-05
  -2.07200003       7.91681668E-06
  -2.06999993       1.15428047E-05
  -2.06800008       1.47544424E-05
  -2.06599998       9.94518268E-06
  -2.06399989      -7.39343568E-06
  -2.06200004      -3.68877918E-05
  -2.05999994      -7.32760018E-05
  -2.05800009      -1.07951528E-04
  -2.05599999      -1.31456662E-04
  -2.05399990      -1.36247138E-04
  -2.05200005      -1.19113305E-04
  -2.04999995      -8.26990145E-05
  -2.04800010      -3.55881857E-05
  -2.04600000       9.42797305E-06
  -2.04399991       3.88679109E-05
  -2.04200006       4.31191293E-05
  -2.03999996       2.05612887E-05
  -2.03800011      -2.05533888E-05
  -2.03600001      -6.38122365E-05
  -2.03399992      -9.00183077E-05
  -2.03200006      -8.46364564E-05
  -2.02999997      -4.44331090E-05
  -2.02800012       1.97209229E-05
  -2.02600002       8.56500046E-05
  -2.02399993       1.27748091E-04
  -2.02200007       1.27057807E-04
  -2.01999998       7.94168009E-05
  -2.01799989      -1.94884296E-06
  -2.01600003      -9.08018410E-05
  -2.01399994      -1.57695104E-04
  -2.01200008      -1.81260795E-04
  -2.00999999      -1.56343260E-04
  -2.00799990      -9.56564909E-05
  -2.00600004      -2.44031780E-05
  -2.00399995       2.97651786E-05
  -2.00200009       4.72454994E-05
  -2.00000000       2.32792881E-05
  -1.99800003      -3.13311939E-05
  -1.99600005      -9.53429990E-05
  -1.99399996      -1.45512604E-04
  -1.99199998      -1.64842044E-04
  -1.99000001      -1.47657207E-04
  -1.98800004      -1.00183483E-04
  -1.98599994      -3.71702336E-05
  -1.98399997       2.35762818E-05
  -1.98199999       6.65783955E-05
  -1.98000002       8.24025265E-05
  -1.97800004       6.91124005E-05
  -1.97599995       3.17311169E-05
  -1.97399998      -1.96165656E-05
  -1.97200000      -7.22574769E-05
  -1.97000003      -1.13821821E-04
  -1.96800005      -1.35103139E-04
  -1.96599996      -1.32503294E-04
  -1.96399999      -1.09402710E-04
  -1.96200001      -7.57432572E-05
  -1.96000004      -4.54663896E-05
  -1.95799994      -3.22017950E-05
  -1.95599997      -4.44491488E-05
  -1.95400000      -8.19988782E-05
  -1.95200002      -1.35150971E-04
  -1.95000005      -1.87373094E-04
  -1.94799995      -2.20710499E-04
  -1.94599998      -2.22078917E-04
  -1.94400001      -1.88068749E-04
  -1.94200003      -1.26336003E-04
  -1.94000006      -5.29192766E-05
  -1.93799996       1.35867012E-05
  -1.93599999       5.87914110E-05
  -1.93400002       7.75672670E-05
  -1.93200004       7.54028515E-05
  -1.92999995       6.55112890E-05
  -1.92799997       6.28760681E-05
  -1.92600000       7.76830566E-05
  -1.92400002       1.10853056E-04
  -1.92200005       1.53517773E-04
  -1.91999996       1.90626612E-04
  -1.91799998       2.07139325E-04
  -1.91600001       1.94203501E-04
  -1.91400003       1.52784167E-04
  -1.91199994       9.33491174E-05
  -1.90999997       3.18846578E-05
  -1.90799999      -1.60250875E-05
  -1.90600002      -4.06745530E-05
  -1.90400004      -4.12529043E-05
  -1.90199995      -2.54995921E-05
  -1.89999998      -6.42664509E-06
  -1.89800000       2.46992363E-06
  -1.89600003      -8.25275220E-06
  -1.89400005      -4.11453329E-05
  -1.89199996      -9.14322372E-05
  -1.88999999      -1.48854262E-04
  -1.88800001      -2.01002476E-04
  -1.88600004      -2.37027256E-04
  -1.88399994      -2.50629615E-04
  -1.88199997      -2.41547750E-04
  -1.88000000      -2.15233740E-04
  -1.87800002      -1.80934396E-04
  -1.87600005      -1.48822146E-04
  -1.87399995      -1.27058884E-04
  -1.87199998      -1.19658238E-04
  -1.87000000      -1.25748003E-04
  -1.86800003      -1.40387696E-04
  -1.86600006      -1.56603084E-04
  -1.86399996      -1.67909137E-04
  -1.86199999      -1.70449595E-04
  -1.86000001      -1.64047320E-04
  -1.85800004      -1.51888686E-04
  -1.85599995      -1.39088137E-04
  -1.85399997      -1.30774977E-04
  -1.85200000      -1.30437955E-04
  -1.85000002      -1.39032418E-04
  -1.84800005      -1.54942405E-04
  -1.84599996      -1.74537578E-04
  -1.84399998      -1.92961117E-04
  -1.84200001      -2.04939875E-04
  -1.84000003      -2.05658318E-04
  -1.83800006      -1.91836749E-04
  -1.83599997      -1.62975542E-04
  -1.83399999      -1.22365076E-04
  -1.83200002      -7.71936102E-05
  -1.83000004      -3.71980204E-05
  -1.82799995      -1.18786847E-05
  -1.82599998      -7.10377208E-06
  -1.82400000      -2.25172771E-05
  -1.82200003      -5.11219187E-05
  -1.82000005      -8.16167594E-05
  -1.81799996      -1.02824248E-04
  -1.81599998      -1.08436405E-04
  -1.81400001      -9.99353506E-05
  -1.81200004      -8.61807202E-05
  -1.80999994      -7.95873639E-05
  -1.80799997      -9.04075714E-05
  -1.80599999      -1.21625635E-04
  -1.80400002      -1.66853351E-04
  -1.80200005      -2.12374260E-04
  -1.79999995      -2.42645969E-04
  -1.79799998      -2.46963638E-04
  -1.79600000      -2.24363088E-04
  -1.79400003      -1.84519813E-04
  -1.79200006      -1.44109727E-04
  -1.78999996      -1.20091659E-04
  -1.78799999      -1.22753103E-04
  -1.78600001      -1.51511427E-04
  -1.78400004      -1.95294429E-04
  -1.78199995      -2.37351167E-04
  -1.77999997      -2.62426183E-04
  -1.77800000      -2.63208116E-04
  -1.77600002      -2.43282193E-04
  -1.77400005      -2.15339300E-04
  -1.77199996      -1.95453307E-04
  -1.76999998      -1.95941800E-04
  -1.76800001      -2.19928435E-04
  -1.76600003      -2.59957334E-04
  -1.76400006      -3.01218679E-04
  -1.76199996      -3.27917776E-04
  -1.75999999      -3.29962408E-04
  -1.75800002      -3.07063514E-04
  -1.75600004      -2.68559932E-04
  -1.75399995      -2.29211611E-04
  -1.75199997      -2.02960131E-04
  -1.75000000      -1.97438902E-04
  -1.74800003      -2.11513237E-04
  -1.74600005      -2.36652268E-04
  -1.74399996      -2.61214969E-04
  -1.74199998      -2.75563973E-04
  -1.74000001      -2.75777333E-04
  -1.73800004      -2.64559611E-04
  -1.73599994      -2.49289093E-04
  -1.73399997      -2.38341396E-04
  -1.73199999      -2.37419925E-04
  -1.73000002      -2.47429329E-04
  -1.72800004      -2.64629372E-04
  -1.72599995      -2.82781053E-04
  -1.72399998      -2.96178594E-04
  -1.72200000      -3.02155822E-04
  -1.72000003      -3.01965920E-04
  -1.71800005      -2.99721141E-04
  -1.71599996      -2.99999956E-04
  -1.71399999      -3.05368390E-04
  -1.71200001      -3.15095909E-04
  -1.71000004      -3.25736502E-04
  -1.70799994      -3.33276170E-04
  -1.70599997      -3.35701159E-04
  -1.70400000      -3.34580400E-04
  -1.70200002      -3.34733835E-04
  -1.70000005      -3.42035695E-04
  -1.69799995      -3.60381469E-04
  -1.69599998      -3.89316032E-04
  -1.69400001      -4.23547812E-04
  -1.69200003      -4.54707042E-04
  -1.69000006      -4.74672008E-04
  -1.68799996      -4.79056151E-04
  -1.68599999      -4.69331222E-04
  -1.68400002      -4.52580018E-04
  -1.68200004      -4.38825693E-04
  -1.67999995      -4.36908565E-04
  -1.67799997      -4.50578431E-04
  -1.67600000      -4.76542802E-04
  -1.67400002      -5.05523873E-04
  -1.67200005      -5.26131480E-04
  -1.66999996      -5.30021382E-04
  -1.66799998      -5.16038970E-04
  -1.66600001      -4.91305778E-04
  -1.66400003      -4.68525919E-04
  -1.66199994      -4.60582145E-04
  -1.65999997      -4.74878208E-04
  -1.65799999      -5.10083919E-04
  -1.65600002      -5.56786894E-04
  -1.65400004      -6.01626409E-04
  -1.65199995      -6.32825831E-04
  -1.64999998      -6.44497282E-04
  -1.64800000      -6.37929770E-04
  -1.64600003      -6.19734987E-04
  -1.64400005      -5.98251005E-04
  -1.64199996      -5.80197666E-04
  -1.63999999      -5.69052994E-04
  -1.63800001      -5.65419963E-04
  -1.63600004      -5.68547461E-04
  -1.63399994      -5.77744795E-04
  -1.63199997      -5.92796539E-04
  -1.63000000      -6.13295182E-04
  -1.62800002      -6.37550140E-04
  -1.62600005      -6.61991246E-04
  -1.62399995      -6.81700709E-04
  -1.62199998      -6.92071801E-04
  -1.62000000      -6.90937974E-04
  -1.61800003      -6.80173864E-04
  -1.61600006      -6.65870553E-04
  -1.61399996      -6.56715129E-04
  -1.61199999      -6.60966442E-04
  -1.61000001      -6.83117425E-04
  -1.60800004      -7.21618242E-04
  -1.60599995      -7.68750790E-04
  -1.60399997      -8.12936400E-04
  -1.60200000      -8.42737674E-04
  -1.60000002      -8.51050369E-04
  -1.59800005      -8.37827451E-04
  -1.59599996      -8.10229161E-04
  -1.59399998      -7.80119095E-04
  -1.59200001      -7.59889139E-04
  -1.59000003      -7.58241687E-04
  -1.58800006      -7.77527457E-04
  -1.58599997      -8.13567895E-04
  -1.58399999      -8.57867184E-04
  -1.58200002      -9.01164836E-04
  -1.58000004      -9.36786062E-04
  -1.57799995      -9.62430146E-04
  -1.57599998      -9.79815028E-04
  -1.57400000      -9.92623973E-04
  -1.57200003      -1.00399146E-03
  -1.57000005      -1.01490691E-03
  -1.56799996      -1.02432526E-03
  -1.56599998      -1.03076443E-03
  -1.56400001      -1.03428436E-03
  -1.56200004      -1.03749870E-03
  -1.55999994      -1.04483427E-03
  -1.55799997      -1.06029143E-03
  -1.55599999      -1.08491362E-03
  -1.55400002      -1.11543620E-03
  -1.55200005      -1.14504108E-03
  -1.54999995      -1.16603810E-03
  -1.54799998      -1.17327052E-03
  -1.54600000      -1.16661645E-03
  -1.54400003      -1.15136860E-03
  -1.54200006      -1.13628968E-03
  -1.53999996      -1.13023072E-03
  -1.53799999      -1.13882869E-03
  -1.53600001      -1.16269535E-03
  -1.53400004      -1.19775860E-03
  -1.53199995      -1.23739080E-03
  -1.52999997      -1.27520086E-03
  -1.52800000      -1.30719983E-03
  -1.52600002      -1.33253157E-03
  -1.52400005      -1.35274907E-03
  -1.52199996      -1.37030834E-03
  -1.51999998      -1.38717191E-03
  -1.51800001      -1.40413770E-03
  -1.51600003      -1.42098719E-03
  -1.51400006      -1.43710151E-03
  -1.51199996      -1.45210349E-03
  -1.50999999      -1.46625470E-03
  -1.50800002      -1.48054492E-03
  -1.50600004      -1.49652071E-03
  -1.50399995      -1.51586230E-03
  -1.50199997      -1.53969147E-03
  -1.50000000      -1.56777701E-03
  -1.49800003      -1.59807038E-03
  -1.49600005      -1.62704801E-03
  -1.49399996      -1.65103795E-03
  -1.49199998      -1.66806439E-03
  -1.49000001      -1.67919020E-03
  -1.48800004      -1.68837071E-03
  -1.48599994      -1.70059223E-03
  -1.48399997      -1.71917118E-03
  -1.48199999      -1.74379337E-03
  -1.48000002      -1.77060696E-03
  -1.47800004      -1.79451192E-03
  -1.47599995      -1.81240251E-03
  -1.47399998      -1.82541448E-03
  -1.47200000      -1.83873251E-03
  -1.47000003      -1.85893546E-03
  -1.46800005      -1.89031742E-03
  -1.46599996      -1.93221692E-03
  -1.46399999      -1.97882624E-03
  -1.46200001      -2.02157395E-03
  -1.46000004      -2.05286709E-03
  -1.45799994      -2.06942298E-03
  -1.45599997      -2.07377644E-03
  -1.45400000      -2.07346864E-03
  -1.45200002      -2.07838323E-03
  -1.45000005      -2.09727883E-03
  -1.44799995      -2.13470124E-03
  -1.44599998      -2.18924042E-03
  -1.44400001      -2.25368026E-03
  -1.44200003      -2.31706980E-03
  -1.44000006      -2.36815237E-03
  -1.43799996      -2.39905901E-03
  -1.43599999      -2.40796804E-03
  -1.43400002      -2.39971583E-03
  -1.43200004      -2.38407939E-03
  -1.42999995      -2.37235823E-03
  -1.42799997      -2.37360457E-03
  -1.42600000      -2.39197491E-03
  -1.42400002      -2.42613745E-03
  -1.42200005      -2.47074733E-03
  -1.41999996      -2.51914025E-03
  -1.41799998      -2.56591570E-03
  -1.41600001      -2.60831299E-03
  -1.41400003      -2.64596962E-03
  -1.41199994      -2.67956406E-03
  -1.40999997      -2.70942319E-03
  -1.40799999      -2.73508346E-03
  -1.40600002      -2.75612320E-03
  -1.40400004      -2.77364952E-03
  -1.40199995      -2.79126363E-03
  -1.39999998      -2.81453645E-03
  -1.39800000      -2.84889503E-03
  -1.39600003      -2.89688422E-03
  -1.39400005      -2.95632216E-03
  -1.39199996      -3.02050309E-03
  -1.38999999      -3.08050239E-03
  -1.38800001      -3.12852883E-03
  -1.38600004      -3.16077098E-03
  -1.38399994      -3.17855529E-03
  -1.38199997      -3.18755559E-03
  -1.38000000      -3.19572072E-03
  -1.37800002      -3.21089430E-03
  -1.37600005      -3.23886285E-03
  -1.37399995      -3.28210765E-03
  -1.37199998      -3.33928014E-03
  -1.37000000      -3.40540311E-03
  -1.36800003      -3.47290095E-03
  -1.36600006      -3.53349559E-03
  -1.36399996      -3.58061166E-03
  -1.36199999      -3.61151970E-03
  -1.36000001      -3.62834381E-03
  -1.35800004      -3.63746053E-03
  -1.35599995      -3.64741869E-03
  -1.35399997      -3.66618740E-03
  -1.35200000      -3.69871617E-03
  -1.35000002      -3.74563714E-03
  -1.34800005      -3.80337634E-03
  -1.34599996      -3.86552466E-03
  -1.34399998      -3.92495142E-03
  -1.34200001      -3.97599861E-03
  -1.34000003      -4.01609903E-03
  -1.33800006      -4.04634047E-03
  -1.33599997      -4.07088781E-03
  -1.33399999      -4.09552688E-03
  -1.33200002      -4.12589358E-03
  -1.33000004      -4.16597212E-03
  -1.32799995      -4.21721162E-03
  -1.32599998      -4.27833246E-03
  -1.32400000      -4.34563123E-03
  -1.32200003      -4.41373605E-03
  -1.32000005      -4.47679637E-03
  -1.31799996      -4.53004101E-03
  -1.31599998      -4.57135728E-03
  -1.31400001      -4.60219244E-03
  -1.31200004      -4.62715933E-03
  -1.30999994      -4.65228502E-03
  -1.30799997      -4.68268152E-03
  -1.30599999      -4.72084945E-03
  -1.30400002      -4.76645865E-03
  -1.30200005      -4.81761247E-03
  -1.29999995      -4.87253629E-03
  -1.29799998      -4.93040588E-03
  -1.29600000      -4.99074627E-03
  -1.29400003      -5.05199609E-03
  -1.29200006      -5.11057116E-03
  -1.28999996      -5.16157551E-03
  -1.28799999      -5.20115253E-03
  -1.28600001      -5.22917975E-03
  -1.28400004      -5.25057921E-03
  -1.28199995      -5.27416728E-03
  -1.27999997      -5.30935731E-03
  -1.27800000      -5.36225410E-03
  -1.27600002      -5.43301739E-03
  -1.27400005      -5.51565830E-03
  -1.27199996      -5.60027407E-03
  -1.26999998      -5.67665696E-03
  -1.26800001      -5.73780667E-03
  -1.26600003      -5.78211062E-03
  -1.26400006      -5.81360888E-03
  -1.26199996      -5.84041933E-03
  -1.25999999      -5.87198837E-03
  -1.25800002      -5.91603853E-03
  -1.25600004      -5.97624155E-03
  -1.25399995      -6.05130894E-03
  -1.25199997      -6.13573845E-03
  -1.25000000      -6.22182619E-03
  -1.24800003      -6.30220678E-03
  -1.24600005      -6.37194468E-03
  -1.24399996      -6.42956141E-03
  -1.24199998      -6.47682324E-03
  -1.24000001      -6.51753321E-03
  -1.23800004      -6.55592373E-03
  -1.23599994      -6.59527071E-03
  -1.23399997      -6.63727988E-03
  -1.23199999      -6.68241270E-03
  -1.23000002      -6.73085637E-03
  -1.22800004      -6.78347936E-03
  -1.22599995      -6.84206141E-03
  -1.22399998      -6.90843025E-03
  -1.22200000      -6.98287133E-03
  -1.22000003      -7.06274202E-03
  -1.21800005      -7.14246370E-03
  -1.21599996      -7.21528986E-03
  -1.21399999      -7.27619929E-03
  -1.21200001      -7.32446834E-03
  -1.21000004      -7.36445608E-03
  -1.20799994      -7.40401167E-03
  -1.20599997      -7.45125115E-03
  -1.20400000      -7.51128094E-03
  -1.20200002      -7.58433202E-03
  -1.20000005      -7.66600110E-03
  -1.19799995      -7.74921989E-03
  -1.19599998      -7.82691035E-03
  -1.19400001      -7.89422635E-03
  -1.19200003      -7.94983655E-03
  -1.19000006      -7.99608789E-03
  -1.18799996      -8.03816039E-03
  -1.18599999      -8.08244292E-03
  -1.18400002      -8.13453738E-03
  -1.18200004      -8.19742959E-03
  -1.17999995      -8.27056542E-03
  -1.17799997      -8.35022610E-03
  -1.17600000      -8.43114778E-03
  -1.17400002      -8.50866176E-03
  -1.17200005      -8.58034473E-03
  -1.16999996      -8.64650309E-03
  -1.16799998      -8.70935619E-03
  -1.16600001      -8.77151545E-03
  -1.16400003      -8.83461628E-03
  -1.16199994      -8.89863726E-03
  -1.15999997      -8.96214321E-03
  -1.15799999      -9.02326126E-03
  -1.15600002      -9.08086728E-03
  -1.15400004      -9.13549308E-03
  -1.15199995      -9.18952562E-03
  -1.14999998      -9.24650114E-03
  -1.14800000      -9.30961967E-03
  -1.14600003      -9.38013103E-03
  -1.14400005      -9.45641380E-03
  -1.14199996      -9.53441765E-03
  -1.13999999      -9.60937701E-03
  -1.13800001      -9.67797451E-03
  -1.13600004      -9.73988511E-03
  -1.13399994      -9.79779661E-03
  -1.13199997      -9.85598844E-03
  -1.13000000      -9.91833583E-03
  -1.12800002      -9.98685509E-03
  -1.12600005      -1.00614484E-02
  -1.12399995      -1.01406146E-02
  -1.12199998      -1.02223484E-02
  -1.12000000      -1.03046289E-02
  -1.11800003      -1.03853829E-02
  -1.11600006      -1.04623595E-02
  -1.11399996      -1.05334008E-02
  -1.11199999      -1.05972132E-02
  -1.11000001      -1.06542623E-02
  -1.10800004      -1.07069593E-02
  -1.10599995      -1.07589308E-02
  -1.10399997      -1.08137215E-02
  -1.10200000      -1.08735235E-02
  -1.10000002      -1.09386202E-02
  -1.09800005      -1.10077113E-02
  -1.09599996      -1.10787842E-02
  -1.09399998      -1.11499187E-02
  -1.09200001      -1.12196580E-02
  -1.09000003      -1.12869842E-02
  -1.08800006      -1.13511160E-02
  -1.08599997      -1.14114527E-02
  -1.08399999      -1.14678750E-02
  -1.08200002      -1.15212314E-02
  -1.08000004      -1.15736360E-02
  -1.07799995      -1.16283763E-02
  -1.07599998      -1.16891237E-02
  -1.07400000      -1.17585771E-02
  -1.07200003      -1.18371006E-02
  -1.07000005      -1.19219609E-02
  -1.06799996      -1.20077673E-02
  -1.06599998      -1.20882336E-02
  -1.06400001      -1.21586015E-02
  -1.06200004      -1.22176278E-02
  -1.05999994      -1.22682471E-02
  -1.05799997      -1.23164961E-02
  -1.05599999      -1.23691568E-02
  -1.05400002      -1.24312043E-02
  -1.05200005      -1.25039909E-02
  -1.04999995      -1.25847869E-02
  -1.04799998      -1.26676969E-02
  -1.04600000      -1.27455033E-02
  -1.04400003      -1.28118480E-02
  -1.04200006      -1.28632514E-02
  -1.03999996      -1.29005332E-02
  -1.03799999      -1.29290018E-02
  -1.03600001      -1.29569517E-02
  -1.03400004      -1.29929539E-02
  -1.03199995      -1.30427312E-02
  -1.02999997      -1.31068975E-02
  -1.02800000      -1.31807271E-02
  -1.02600002      -1.32561689E-02
  -1.02400005      -1.33252591E-02
  -1.02199996      -1.33833084E-02
  -1.01999998      -1.34304827E-02
  -1.01800001      -1.34712942E-02
  -1.01600003      -1.35123907E-02
  -1.01400006      -1.35598592E-02
  -1.01199996      -1.36170853E-02
  -1.00999999      -1.36838239E-02
  -1.00800002      -1.37566114E-02
  -1.00600004      -1.38302241E-02
  -1.00399995      -1.38996039E-02
  -1.00199997      -1.39615126E-02
  -1.00000000      -1.40153943E-02
 -0.998000026      -1.40630221E-02
 -0.995999992      -1.41071342E-02
 -0.994000018      -1.41498055E-02
 -0.991999984      -1.41914394E-02
 -0.990000010      -1.42309554E-02
 -0.987999976      -1.42670749E-02
 -0.986000001      -1.42998211E-02
 -0.984000027      -1.43312775E-02
 -0.981999993      -1.43650249E-02
 -0.980000019      -1.44046005E-02
 -0.977999985      -1.44516472E-02
 -0.976000011      -1.45047866E-02
 -0.973999977      -1.45598641E-02
 -0.972000003      -1.46113522E-02
 -0.970000029      -1.46543132E-02
 -0.967999995      -1.46862296E-02
 -0.966000021      -1.47081092E-02
 -0.963999987      -1.47242462E-02
 -0.962000012      -1.47409979E-02
 -0.959999979      -1.47647290E-02
 -0.958000004      -1.47994505E-02
 -0.955999970      -1.48451691E-02
 -0.953999996      -1.48976818E-02
 -0.952000022      -1.49501292E-02
 -0.949999988      -1.49955526E-02
 -0.948000014      -1.50294602E-02
 -0.945999980      -1.50512159E-02
 -0.944000006      -1.50635922E-02
 -0.941999972      -1.50710596E-02
 -0.939999998      -1.50778340E-02
 -0.938000023      -1.50865931E-02
 -0.935999990      -1.50983315E-02
 -0.934000015      -1.51131703E-02
 -0.931999981      -1.51312649E-02
 -0.930000007      -1.51531417E-02
 -0.927999973      -1.51794665E-02
 -0.925999999      -1.52104339E-02
 -0.924000025      -1.52450716E-02
 -0.921999991      -1.52809341E-02
 -0.920000017      -1.53143015E-02
 -0.917999983      -1.53408973E-02
 -0.916000009      -1.53571442E-02
 -0.913999975      -1.53613538E-02
 -0.912000000      -1.53545793E-02
 -0.910000026      -1.53406011E-02
 -0.907999992      -1.53249223E-02
 -0.906000018      -1.53130693E-02
 -0.903999984      -1.53087201E-02
 -0.902000010      -1.53125376E-02
 -0.899999976      -1.53221432E-02
 -0.898000002      -1.53331123E-02
 -0.896000028      -1.53405378E-02
 -0.893999994      -1.53404865E-02
 -0.892000020      -1.53308455E-02
 -0.889999986      -1.53116165E-02
 -0.888000011      -1.52846929E-02
 -0.885999978      -1.52533725E-02
 -0.884000003      -1.52217411E-02
 -0.882000029      -1.51938414E-02
 -0.879999995      -1.51727991E-02
 -0.878000021      -1.51602346E-02
 -0.875999987      -1.51560027E-02
 -0.874000013      -1.51581885E-02
 -0.871999979      -1.51633695E-02
 -0.870000005      -1.51670920E-02
 -0.867999971      -1.51645429E-02
 -0.865999997      -1.51515044E-02
 -0.864000022      -1.51255233E-02
 -0.861999989      -1.50868269E-02
 -0.860000014      -1.50385750E-02
 -0.857999980      -1.49858622E-02
 -0.856000006      -1.49340173E-02
 -0.853999972      -1.48868412E-02
 -0.851999998      -1.48453992E-02
 -0.850000024      -1.48082469E-02
 -0.847999990      -1.47725726E-02
 -0.846000016      -1.47355115E-02
 -0.843999982      -1.46950334E-02
 -0.842000008      -1.46498950E-02
 -0.839999974      -1.45992544E-02
 -0.838000000      -1.45423971E-02
 -0.836000025      -1.44791286E-02
 -0.833999991      -1.44104939E-02
 -0.832000017      -1.43390968E-02
 -0.829999983      -1.42685706E-02
 -0.828000009      -1.42022176E-02
 -0.825999975      -1.41415093E-02
 -0.824000001      -1.40853375E-02
 -0.822000027      -1.40304407E-02
 -0.819999993      -1.39727313E-02
 -0.818000019      -1.39087401E-02
 -0.815999985      -1.38367768E-02
 -0.814000010      -1.37571776E-02
 -0.811999977      -1.36717409E-02
 -0.810000002      -1.35829216E-02
 -0.808000028      -1.34931142E-02
 -0.805999994      -1.34041347E-02
 -0.804000020      -1.33169070E-02
 -0.801999986      -1.32312365E-02
 -0.800000012      -1.31458044E-02
 -0.797999978      -1.30585479E-02
 -0.796000004      -1.29674487E-02
 -0.794000030      -1.28715336E-02
 -0.791999996      -1.27716549E-02
 -0.790000021      -1.26703847E-02
 -0.787999988      -1.25709344E-02
 -0.786000013      -1.24755176E-02
 -0.783999979      -1.23837693E-02
 -0.782000005      -1.22922119E-02
 -0.779999971      -1.21951774E-02
 -0.777999997      -1.20869372E-02
 -0.776000023      -1.19640343E-02
 -0.773999989      -1.18268579E-02
 -0.772000015      -1.16798095E-02
 -0.769999981      -1.15296710E-02
 -0.768000007      -1.13830855E-02
 -0.765999973      -1.12442877E-02
 -0.763999999      -1.11139547E-02
 -0.762000024      -1.09894117E-02
 -0.759999990      -1.08659845E-02
 -0.758000016      -1.07387584E-02
 -0.755999982      -1.06040556E-02
 -0.754000008      -1.04602547E-02
 -0.751999974      -1.03077115E-02
 -0.750000000      -1.01482272E-02
 -0.748000026      -9.98455193E-03
 -0.745999992      -9.81980097E-03
 -0.744000018      -9.65695642E-03
 -0.741999984      -9.49844997E-03
 -0.740000010      -9.34544392E-03
 -0.737999976      -9.19742137E-03
 -0.736000001      -9.05208662E-03
 -0.734000027      -8.90562218E-03
 -0.731999993      -8.75365082E-03
 -0.730000019      -8.59244633E-03
 -0.727999985      -8.42005853E-03
 -0.726000011      -8.23692139E-03
 -0.723999977      -8.04568827E-03
 -0.722000003      -7.85021205E-03
 -0.720000029      -7.65419845E-03
 -0.717999995      -7.46007450E-03
 -0.716000021      -7.26835243E-03
 -0.713999987      -7.07785739E-03
 -0.712000012      -6.88661356E-03
 -0.709999979      -6.69281697E-03
 -0.708000004      -6.49543200E-03
 -0.705999970      -6.29414385E-03
 -0.703999996      -6.08882960E-03
 -0.702000022      -5.87915815E-03
 -0.699999988      -5.66471275E-03
 -0.698000014      -5.44549385E-03
 -0.695999980      -5.22218132E-03
 -0.694000006      -4.99584153E-03
 -0.691999972      -4.76742163E-03
 -0.689999998      -4.53724666E-03
 -0.688000023      -4.30519879E-03