  -2.40000010       0.00000000    
  -2.39800000       0.00000000    
  -2.39599991       0.00000000    
  -2.39400005       0.00000000    
  -2.39199996       0.00000000    
  -2.39000010       0.00000000    
  -2.38800001      -9.61310947E-19
  -2.38599992      -9.95278768E-18
  -2.38400006      -5.53097427E-17
  -2.38199997      -2.05869558E-16
  -2.38000011      -5.27277216E-16
  -2.37800002      -8.41526704E-16
  -2.37599993      -3.62309714E-16
  -2.37400007       2.00078627E-15
  -2.37199998       5.46220165E-15
  -2.36999989       4.25358855E-15
  -2.36800003      -1.00902114E-14
  -2.36599994      -3.29108756E-14
  -2.36400008      -2.39144371E-14
  -2.36199999       8.25032927E-14
  -2.35999990       2.82575341E-13
  -2.35800004       3.49180808E-13
  -2.35599995      -1.82513225E-13
  -2.35400009      -1.58838285E-12
  -2.35200000      -3.07018777E-12
  -2.34999990      -2.18259005E-12
  -2.34800005       3.93903269E-12
  -2.34599996       1.46991534E-11
  -2.34400010       2.15507907E-11
  -2.34200001       8.70060361E-12
  -2.33999991      -3.49365918E-11
  -2.33800006      -9.44343492E-11
  -2.33599997      -1.14999225E-10
  -2.33400011      -2.22593905E-11
  -2.33200002       2.09856924E-10
  -2.32999992       4.74076778E-10
  -2.32800007       5.09706333E-10
  -2.32599998       3.55896493E-11
  -2.32399988      -9.64663793E-10
  -2.32200003      -1.97363459E-09
  -2.31999993      -1.98573180E-09
  -2.31800008      -8.87208085E-11
  -2.31599998       3.56428309E-09
  -2.31399989       7.03805547E-09
  -2.31200004       7.03180003E-09
  -2.30999994       8.59863736E-10
  -2.30800009      -1.07242206E-08
  -2.30599999      -2.18123830E-08
  -2.30399990      -2.29273507E-08
  -2.30200005      -6.56567467E-09
  -2.29999995       2.55892303E-08
  -2.29800010       5.86596478E-08
  -2.29600000       6.85675516E-08
  -2.29399991       3.49355211E-08
  -2.29200006      -4.24523030E-08
  -2.28999996      -1.33758689E-07
  -2.28800011      -1.85196996E-07
  -2.28600001      -1.43199713E-07
  -2.28399992       1.20502568E-08
  -2.28200006       2.40466505E-07
  -2.27999997       4.40180543E-07
  -2.27800012       4.78429911E-07
  -2.27600002       2.50608139E-07
  -2.27399993      -2.49930423E-07
  -2.27200007      -8.78651974E-07
  -2.26999998      -1.33688104E-06
  -2.26799989      -1.25148904E-06
  -2.26600003      -3.49949630E-07
  -2.26399994       1.30580156E-06
  -2.26200008       3.13632086E-06
  -2.25999999       4.07895914E-06
  -2.25799990       2.97929478E-06
  -2.25600004      -6.83764199E-07
  -2.25399995      -6.03546960E-06
  -2.25200009      -1.05389690E-05
  -2.25000000      -1.07403494E-05
  -2.24799991      -4.10909161E-06
  -2.24600005       8.70476470E-06
  -2.24399996       2.25752956E-05
  -2.24200010       2.90111566E-05
  -2.24000001       2.01536459E-05
  -2.23799992      -5.66320659E-06
  -2.23600006      -3.98632874E-05
  -2.23399997      -6.45574328E-05
  -2.23200011      -6.00619678E-05
  -2.23000002      -1.68325405E-05
  -2.22799993       5.42478301E-05
  -2.22600007       1.20634613E-04
  -2.22399998       1.40245320E-04
  -2.22199988       8.41117289E-05
  -2.22000003      -4.11124929E-05
  -2.21799994      -1.85063720E-04
  -2.21600008      -2.69836892E-04
  -2.21399999      -2.28061661E-04
  -2.21199989      -4.60824340E-05
  -2.21000004       2.12685409E-04
  -2.20799994       4.23922000E-04
  -2.20600009       4.58828552E-04
  -2.20400000       2.57144478E-04
  -2.20199990      -1.22831669E-04
  -2.20000005      -5.12190396E-04
  -2.19799995      -7.05178769E-04
  -2.19600010      -5.68680291E-04
  -2.19400001      -1.29668071E-04
  -2.19199991       4.15163522E-04
  -2.19000006       7.87045690E-04
  -2.18799996       7.74390996E-04
  -2.18600011       3.64517822E-04
  -2.18400002      -2.24186442E-04
  -2.18199992      -6.44908869E-04
  -2.18000007      -6.18786435E-04
  -2.17799997      -1.20035867E-04
  -2.17600012       5.65274619E-04
  -2.17400002       9.63387836E-04
  -2.17199993       6.74471608E-04
  -2.17000008      -3.63661646E-04
  -2.16799998      -1.76627166E-03
  -2.16599989      -2.83362693E-03
  -2.16400003      -2.88063055E-03
  -2.16199994      -1.60085852E-03
  -2.16000009       7.34211062E-04
  -2.15799999       3.36203887E-03
  -2.15599990       5.36764413E-03
  -2.15400004       6.09421683E-03
  -2.15199995       5.39972167E-03
  -2.15000010       3.62208346E-03
  -2.14800000       1.29241438E-03
  -2.14599991      -1.20557670E-03
  -2.14400005      -3.79518489E-03
  -2.14199996      -6.56996667E-03
  -2.14000010      -9.45437886E-03
  -2.13800001      -1.19209550E-02
  -2.13599992      -1.30248014E-02
  -2.13400006      -1.18291341E-02
  -2.13199997      -8.02110974E-03
  -2.13000011      -2.33037141E-03
  -2.12800002       3.59117892E-03
  -2.12599993       7.88042974E-03
  -2.12400007       9.43407044E-03
  -2.12199998       8.57139844E-03
  -2.11999989       6.91186637E-03
  -2.11800003       6.40980015E-03
  -2.11599994       8.02187901E-03
  -2.11400008       1.08069777E-02
  -2.11199999       1.21291345E-02
  -2.10999990       9.05797631E-03
  -2.10800004       3.23050423E-04
  -2.10599995      -1.22880610E-02
  -2.10400009      -2.40632948E-02
  -2.10200000      -2.92598158E-02
  -2.09999990      -2.39856578E-02
  -2.09800005      -8.60177446E-03
  -2.09599996       1.17640970E-02
  -2.09400010       2.91278027E-02
  -2.09200001       3.62430774E-02
  -2.08999991       3.01438700E-02
  -2.08800006       1.37741407E-02
  -2.08599997      -5.26775327E-03
  -2.08400011      -1.83621198E-02
  -2.08200002      -2.00825222E-02
  -2.07999992      -1.08227599E-02
  -2.07800007       3.54408100E-03
  -2.07599998       1.47990398E-02
  -2.07399988       1.66419409E-02
  -2.07200003       7.83309713E-03
  -2.06999993      -7.40726804E-03
  -2.06800008      -2.18458492E-02
  -2.06599998      -2.90896315E-02
  -2.06399989      -2.66997386E-02
  -2.06200004      -1.69367418E-02
  -2.05999994      -4.92788246E-03
  -2.05800009       4.47477074E-03
  -2.05599999       9.20432433E-03
  -2.05399990       1.04293609E-02
  -2.05200005       1.08758137E-02
  -2.04999995       1.23086544E-02
  -2.04800010       1.39685702E-02
  -2.04600000       1.30963558E-02
  -2.04399991       7.25267967E-03
  -2.04200006      -3.14217713E-03
  -2.03999996      -1.39253717E-02
  -2.03800011      -1.89061612E-02
  -2.03600001      -1.34685561E-02
  -2.03399992       2.00768351E-03
  -2.03200006       2.11563259E-02
  -2.02999997       3.40944454E-02
  -2.02800012       3.23968120E-02
  -2.02600002       1.40052410E-02
  -2.02399993      -1.47423688E-02
  -2.02200007      -4.14098799E-02
  -2.01999998      -5.32330610E-02
  -2.01799989      -4.35336567E-02
  -2.01600003      -1.54297827E-02
  -2.01399994       1.92180518E-02
  -2.01200008       4.52449881E-02
  -2.00999999       5.13302088E-02
  -2.00799990       3.52784991E-02
  -2.00600004       4.82868496E-03
  -2.00399995      -2.63000093E-02
  -2.00200009      -4.50028479E-02
  -2.00000000      -4.46701050E-02
  -1.99800003      -2.75456607E-02
  -1.99600005      -2.71087652E-03
  -1.99399996       1.88996457E-02
  -1.99199998       2.96871774E-02
  -1.99000001       2.82085426E-02
  -1.98800004       1.85604226E-02
  -1.98599994       7.16749858E-03
  -1.98399997      -9.40750353E-04
  -1.98199999      -4.30059992E-03
  -1.98000002      -4.71200747E-03
  -1.97800004      -5.06251119E-03
  -1.97599995      -6.88176136E-03
  -1.97399998      -9.20587871E-03
  -1.97200000      -9.38315224E-03
  -1.97000003      -5.20247035E-03
  -1.96800005       3.08205746E-03
  -1.96599996       1.21831354E-02
  -1.96399999       1.71503201E-02
  -1.96200001       1.40147479E-02
  -1.96000004       2.27403198E-03
  -1.95799994      -1.42001361E-02
  -1.95599997      -2.84672454E-02
  -1.95400000      -3.35424468E-02
  -1.95200002      -2.57491451E-02
  -1.95000005      -6.78453594E-03
  -1.94799995       1.65628921E-02
  -1.94599998       3.50410752E-02
  -1.94400001       4.08218019E-02
  -1.94200003       3.09560020E-02
  -1.94000006       8.84705968E-03
  -1.93799996      -1.69704929E-02
  -1.93599999      -3.62877175E-02
  -1.93400002      -4.14587036E-02
  -1.93200004      -3.05903703E-02
  -1.92999995      -8.28971341E-03
  -1.92799997       1.63591076E-02
  -1.92600000       3.36801335E-02
  -1.92400002       3.74108255E-02
  -1.92200005       2.70510651E-02
  -1.91999996       7.57906586E-03
  -1.91799998      -1.31833777E-02
  -1.91600001      -2.81721912E-02
  -1.91400003      -3.38734016E-02
  -1.91199994      -3.10495067E-02
  -1.90999997      -2.32917406E-02
  -1.90799999      -1.44474618E-02
  -1.90600002      -6.50212448E-03
  -1.90400004       8.92968965E-04
  -1.90199995       9.13102180E-03
  -1.89999998       1.86054483E-02
  -1.89800000       2.74097770E-02
  -1.89600003       3.18207294E-02
  -1.89400005       2.84470748E-02
  -1.89199996       1.67716406E-02
  -1.88999999       3.95816984E-04
  -1.88800001      -1.40674505E-02
  -1.88600004      -2.01317929E-02
  -1.88399994      -1.49778007E-02
  -1.88199997      -1.33646396E-03
  -1.88000000       1.35590453E-02
  -1.87800002       2.16160342E-02
  -1.87600005       1.82473045E-02
  -1.87399995       5.04373293E-03
  -1.87199998      -1.08394409E-02
  -1.87000000      -2.04013046E-02
  -1.86800003      -1.76916439E-02
  -1.86600006      -3.23437573E-03
  -1.86399996       1.59352906E-02
  -1.86199999       2.97238119E-02
  -1.86000001       3.01388577E-02
  -1.85800004       1.54475635E-02
  -1.85599995      -8.83302931E-03
  -1.85399997      -3.25900316E-02
  -1.85200000      -4.59851809E-02
  -1.85000002      -4.40258682E-02
  -1.84800005      -2.85904314E-02
  -1.84599996      -7.07945880E-03
  -1.84399998       1.13876276E-02
  -1.84200001       2.01724228E-02
  -1.84000003       1.76692307E-02
  -1.83800006       7.21146399E-03
  -1.83599997      -5.23649435E-03
  -1.83399999      -1.41508579E-02
  -1.83200002      -1.66974030E-02
  -1.83000004      -1.32642593E-02
  -1.82799995      -6.41360227E-03
  -1.82599998       8.50858167E-04
  -1.82400000       6.46482781E-03
  -1.82200003       9.74225532E-03
  -1.82000005       1.09456489E-02
  -1.81799996       1.05327824E-02
  -1.81599998       8.66669696E-03
  -1.81400001       5.25985006E-03
  -1.81200004       4.02000500E-04
  -1.80999994      -5.22101717E-03
  -1.80799997      -1.02673322E-02
  -1.80599999      -1.31269470E-02
  -1.80400002      -1.25641078E-02
  -1.80200005      -8.28375667E-03
  -1.79999995      -1.14935206E-03
  -1.79799998       7.03529036E-03
  -1.79600000       1.40746608E-02
  -1.79400003       1.80468019E-02
  -1.79200006       1.78636275E-02
  -1.78999996       1.35687646E-02
  -1.78799999       6.30475208E-03
  -1.78600001      -2.03337939E-03
  -1.78400004      -9.35795344E-03
  -1.78199995      -1.39966737E-02
  -1.77999997      -1.51550481E-02
  -1.77800000      -1.30797084E-02
  -1.77600002      -8.87501705E-03
  -1.77400005      -4.06277552E-03
  -1.77199996      -7.10505992E-05
  -1.76999998       2.15612911E-03
  -1.76800001       2.32485309E-03
  -1.76600003       7.47446902E-04
  -1.76400006      -1.82122295E-03
  -1.76199996      -4.38762177E-03
  -1.75999999      -5.94636146E-03
  -1.75800002      -5.75334858E-03
  -1.75600004      -3.62898386E-03
  -1.75399995      -1.71525055E-04
  -1.75199997       3.30590457E-03
  -1.75000000       5.23433834E-03
  -1.74800003       4.54519503E-03
  -1.74600005       1.36534486E-03
  -1.74399996      -2.80856574E-03
  -1.74199998      -5.72418980E-03
  -1.74000001      -5.60170971E-03
  -1.73800004      -2.34753056E-03
  -1.73599994       2.02787155E-03
  -1.73399997       4.23565786E-03
  -1.73199999       1.52665190E-03
  -1.73000002      -6.43645925E-03
  -1.72800004      -1.68060381E-02
  -1.72599995      -2.45518833E-02
  -1.72399998      -2.49368288E-02
  -1.72200000      -1.62243396E-02
  -1.72000003      -1.06476271E-03
  -1.71800005       1.43964076E-02
  -1.71599996       2.34150365E-02
  -1.71399999       2.20846683E-02
  -1.71200001       1.14285899E-02
  -1.71000004      -3.08111450E-03
  -1.70799994      -1.43918758E-02
  -1.70599997      -1.75653677E-02
  -1.70400000      -1.22348750E-02
  -1.70200002      -2.45202868E-03
  -1.70000005       5.93191339E-03
  -1.69799995       8.75799730E-03
  -1.69599998       5.82650723E-03
  -1.69400001       6.07866619E-04
  -1.69200003      -2.35359068E-03
  -1.69000006      -6.55769603E-04
  -1.68799996       4.20863321E-03
  -1.68599999       7.73675274E-03
  -1.68400002       5.43798972E-03
  -1.68200004      -3.89723899E-03
  -1.67999995      -1.68159399E-02
  -1.67799997      -2.67329384E-02
  -1.67600000      -2.76109409E-02
  -1.67400002      -1.76524259E-02
  -1.67200005      -7.63128162E-04
  -1.66999996       1.51890460E-02
  -1.66799998       2.24249437E-02
  -1.66600001       1.73541680E-02
  -1.66400003       2.42958125E-03
  -1.66199994      -1.52363498E-02
  -1.65999997      -2.76404899E-02
  -1.65799999      -2.98942495E-02
  -1.65600002      -2.22987682E-02
  -1.65400004      -9.54245310E-03
  -1.65199995       2.26214621E-03
  -1.64999998       8.85000732E-03
  -1.64800000       9.56343394E-03
  -1.64600003       6.83314493E-03
  -1.64400005       4.01828531E-03
  -1.64199996       3.10997409E-03
  -1.63999999       3.69630521E-03
  -1.63800001       3.65791237E-03
  -1.63600004       9.48235509E-04
  -1.63399994      -4.78490442E-03
  -1.63199997      -1.17644006E-02
  -1.63000000      -1.70379113E-02
  -1.62800002      -1.81482434E-02
  -1.62600005      -1.44837592E-02
  -1.62399995      -7.55074853E-03
  -1.62199998      -1.34499322E-04
  -1.62000000       5.05333953E-03
  -1.61800003       6.45316159E-03
  -1.61600006       3.99143994E-03
  -1.61399996      -1.26617565E-03
  -1.61199999      -7.71594699E-03
  -1.61000001      -1.36659397E-02
  -1.60800004      -1.75361428E-02
  -1.60599995      -1.80278160E-02
  -1.60399997      -1.44819282E-02
  -1.60200000      -7.39378855E-03
  -1.60000002       1.30088604E-03
  -1.59800005       8.59622844E-03
  -1.59599996       1.15447957E-02
  -1.59399998       8.69784970E-03
  -1.59200001       1.04685314E-03
  -1.59000003      -8.20987765E-03
  -1.58800006      -1.51154697E-02
  -1.58599997      -1.69141814E-02
  -1.58399999      -1.34355519E-02
  -1.58200002      -7.09115388E-03
  -1.58000004      -1.47714675E-03
  -1.57799995       6.00322615E-04
  -1.57599998      -1.46729266E-03
  -1.57400000      -6.02313830E-03
  -1.57200003      -1.03428774E-02
  -1.57000005      -1.22768879E-02
  -1.56799996      -1.13145569E-02
  -1.56599998      -8.51053745E-03
  -1.56400001      -5.50158322E-03
  -1.56200004      -3.40006780E-03
  -1.55999994      -2.34031095E-03
  -1.55799997      -1.88892311E-03
  -1.55599999      -1.85734755E-03
  -1.55400002      -2.75294762E-03
  -1.55200005      -5.39723737E-03
  -1.54999995      -9.94589087E-03
  -1.54799998      -1.51013248E-02
  -1.54600000      -1.83183253E-02
  -1.54400003      -1.71570089E-02
  -1.54200006      -1.10544330E-02
  -1.53999996      -2.29654927E-03
  -1.53799999       4.71712649E-03
  -1.53600001       5.79487905E-03
  -1.53400004      -3.89046269E-04
  -1.53199995      -1.10003352E-02
  -1.52999997      -2.01835576E-02
  -1.52800000      -2.22658347E-02
  -1.52600002      -1.52745135E-02
  -1.52400005      -2.58516474E-03
  -1.52199996       8.54396261E-03
  -1.51999998       1.09823467E-02
  -1.51800001       2.05624034E-03
  -1.51600003      -1.44029958E-02
  -1.51400006      -2.97176726E-02
  -1.51199996      -3.50114331E-02
  -1.50999999      -2.62816530E-02
  -1.50800002      -6.97194180E-03
  -1.50600004       1.35606611E-02
  -1.50399995       2.49234214E-02
  -1.50199997       2.12474298E-02
  -1.50000000       4.31911554E-03
  -1.49800003      -1.74317639E-02
  -1.49600005      -3.34769227E-02
  -1.49399996      -3.67124118E-02
  -1.49199998      -2.69382652E-02
  -1.49000001      -1.05124516E-02
  -1.48800004       3.42556974E-03
  -1.48599994       7.92398676E-03
  -1.48399997       1.65079255E-03
  -1.48199999      -1.09338565E-02
  -1.48000002      -2.24802308E-02
  -1.47800004      -2.69131232E-02
  -1.47599995      -2.25115791E-02
  -1.47399998      -1.23754451E-02
  -1.47200000      -2.31012795E-03
  -1.47000003       2.45689950E-03
  -1.46800005      -1.42966397E-04
  -1.46599996      -8.39277077E-03
  -1.46399999      -1.81483049E-02
  -1.46200001      -2.51405258E-02
  -1.46000004      -2.68717725E-02
  -1.45799994      -2.32583787E-02
  -1.45599997      -1.60485841E-02
  -1.45400000      -7.70614902E-03
  -1.45200002      -5.28399833E-04
  -1.45000005       3.70531529E-03
  -1.44799995       3.76275997E-03
  -1.44599998      -8.92124139E-04
  -1.44400001      -9.68712475E-03
  -1.44200003      -2.05578394E-02
  -1.44000006      -3.01314555E-02
  -1.43799996      -3.47819403E-02
  -1.43599999      -3.22538838E-02
  -1.43400002      -2.30086986E-02
  -1.43200004      -1.04187885E-02
  -1.42999995       5.03221992E-04
  -1.42799997       5.32419560E-03
  -1.42600000       2.24403455E-03
  -1.42400002      -7.10323825E-03
  -1.42200005      -1.85089149E-02
  -1.41999996      -2.72411164E-02
  -1.41799998      -3.01930495E-02
  -1.41600001      -2.70578228E-02
  -1.41400003      -2.00717673E-02
  -1.41199994      -1.26251820E-02
  -1.40999997      -7.57709658E-03
  -1.40799999      -6.15002168E-03
  -1.40600002      -7.80841941E-03
  -1.40400004      -1.09657552E-02
  -1.40199995      -1.39806932E-02
  -1.39999998      -1.58808660E-02
  -1.39800000      -1.65210459E-02
  -1.39600003      -1.62990987E-02
  -1.39400005      -1.57401077E-02
  -1.39199996      -1.52434167E-02
  -1.38999999      -1.50607917E-02
  -1.38800001      -1.53832538E-02
  -1.38600004      -1.63350012E-02
  -1.38399994      -1.78368390E-02
  -1.38199997      -1.94634181E-02
  -1.38000000      -2.05061547E-02
  -1.37800002      -2.03151163E-02
  -1.37600005      -1.87574346E-02
  -1.37399995      -1.64684169E-02
  -1.37199998      -1.46396533E-02
  -1.37000000      -1.43598840E-02
  -1.36800003      -1.58978794E-02
  -1.36600006      -1.84192564E-02
  -1.36399996      -2.03804057E-02
  -1.36199999      -2.04484593E-02
  -1.36000001      -1.83864199E-02
  -1.35800004      -1.53446011E-02
  -1.35599995      -1.33103719E-02
  -1.35399997      -1.40361758E-02
  -1.35200000      -1.80440042E-02
  -1.35000002      -2.42878888E-02
  -1.34800005      -3.06436270E-02
  -1.34599996      -3.48818228E-02
  -1.34399998      -3.55955809E-02
  -1.34200001      -3.26260850E-02
  -1.34000003      -2.69163847E-02
  -1.33800006      -2.00255606E-02
  -1.33599997      -1.36493212E-02
  -1.33399999      -9.29676369E-03
  -1.33200002      -8.09003506E-03
  -1.33000004      -1.05360765E-02
  -1.32799995      -1.62412915E-02
  -1.32599998      -2.37327330E-02
  -1.32400000      -3.06709167E-02
  -1.32200003      -3.45496759E-02
  -1.32000005      -3.37509848E-02
  -1.31799996      -2.84105632E-02
  -1.31599998      -2.06290297E-02
  -1.31400001      -1.37350056E-02
  -1.31200004      -1.08514782E-02
  -1.30999994      -1.34122903E-02
  -1.30799997      -2.04135440E-02
  -1.30599999      -2.88255233E-02
  -1.30400002      -3.50546725E-02
  -1.30200005      -3.67102511E-02
  -1.29999995      -3.37833390E-02
  -1.29799998      -2.85627674E-02
  -1.29600000      -2.43331697E-02
  -1.29400003      -2.35497244E-02
  -1.29200006      -2.64811888E-02
  -1.28999996      -3.10938563E-02
  -1.28799999      -3.42508070E-02
  -1.28600001      -3.35176364E-02
  -1.28400004      -2.86038332E-02
  -1.28199995      -2.16035657E-02
  -1.27999997      -1.59204323E-02
  -1.27800000      -1.44712823E-02
  -1.27600002      -1.81484930E-02
  -1.27400005      -2.53233872E-02
  -1.27199996      -3.26599330E-02
  -1.26999998      -3.66901979E-02
  -1.26800001      -3.54676954E-02
  -1.26600003      -2.94304527E-02
  -1.26400006      -2.11767051E-02
  -1.26199996      -1.43068479E-02
  -1.25999999      -1.18662491E-02
  -1.25800002      -1.50680635E-02
  -1.25600004      -2.28232015E-02
  -1.25399995      -3.22222076E-02
  -1.25199997      -3.98005843E-02
  -1.25000000      -4.29870263E-02
  -1.24800003      -4.11982238E-02
  -1.24600005      -3.60259824E-02
  -1.24399996      -3.04295346E-02
  -1.24199998      -2.73146946E-02
  -1.24000001      -2.81418636E-02
  -1.23800004      -3.22346948E-02
  -1.23599994      -3.71762104E-02
  -1.23399997      -4.00777534E-02
  -1.23199999      -3.90940346E-02
  -1.23000002      -3.44061255E-02
  -1.22800004      -2.82050669E-02
  -1.22599995      -2.35654861E-02
  -1.22399998      -2.28803828E-02
  -1.22200000      -2.66248435E-02
  -1.22000003      -3.31018195E-02
  -1.21800005      -3.93132493E-02
  -1.21599996      -4.24565673E-02
  -1.21399999      -4.12794277E-02
  -1.21200001      -3.65717560E-02
  -1.21000004      -3.06165945E-02
  -1.20799994      -2.59517953E-02
  -1.20599997      -2.42046658E-02
  -1.20400000      -2.55510155E-02
  -1.20200002      -2.90751420E-02
  -1.20000005      -3.34903561E-02
  -1.19799995      -3.78388613E-02
  -1.19599998      -4.15870585E-02
  -1.19400001      -4.43453342E-02
  -1.19200003      -4.55025993E-02
  -1.19000006      -4.43388335E-02
  -1.18799996      -4.06023674E-02
  -1.18599999      -3.51203643E-02
  -1.18400002      -2.99391784E-02
  -1.18200004      -2.75404025E-02
  -1.17999995      -2.95039751E-02
  -1.17799997      -3.53747793E-02
  -1.17600000      -4.25323360E-02
  -1.17400002      -4.73693199E-02
  -1.17200005      -4.72412333E-02
  -1.16999996      -4.20479476E-02
  -1.16799998      -3.45068090E-02
  -1.16600001      -2.87634768E-02
  -1.16400003      -2.81348545E-02
  -1.16199994      -3.31487209E-02
  -1.15999997      -4.11766656E-02
  -1.15799999      -4.78536710E-02
  -1.15600002      -4.95390929E-02
  -1.15400004      -4.54264954E-02
  -1.15199995      -3.80420685E-02
  -1.14999998      -3.17739993E-02
  -1.14800000      -3.03466022E-02
  -1.14600003      -3.46061960E-02
  -1.14400005      -4.20380943E-02
  -1.14199996      -4.82062548E-02
  -1.13999999      -4.93802428E-02
  -1.13800001      -4.47142161E-02
  -1.13600004      -3.67033370E-02
  -1.13399994      -2.97113825E-02
  -1.13199997      -2.74148509E-02
  -1.13000000      -3.07420138E-02
  -1.12800002      -3.75196896E-02
  -1.12600005      -4.39465903E-02
  -1.12399995      -4.68976349E-02
  -1.12199998      -4.56684381E-02
  -1.12000000      -4.21091542E-02
  -1.11800003      -3.92283797E-02
  -1.11600006      -3.91642824E-02
  -1.11399996      -4.19446714E-02
  -1.11199999      -4.56430204E-02
  -1.11000001      -4.77860607E-02
  -1.10800004      -4.69942056E-02
  -1.10599995      -4.38214876E-02
  -1.10399997      -4.03114334E-02
  -1.10200000      -3.86546068E-02
  -1.10000002      -3.97887155E-02
  -1.09800005      -4.29054685E-02
  -1.09599996      -4.60155755E-02
  -1.09399998      -4.72494289E-02
  -1.09200001      -4.59653027E-02
  -1.09000003      -4.30863202E-02
  -1.08800006      -4.04492170E-02
  -1.08599997      -3.96942832E-02
  -1.08399999      -4.13485616E-02
  -1.08200002      -4.46099862E-02
  -1.08000004      -4.78969067E-02
  -1.07799995      -4.98159602E-02
  -1.07599998      -4.97246832E-02
  -1.07400000      -4.78850305E-02
  -1.07200003      -4.49642465E-02
  -1.07000005      -4.15420458E-02
  -1.06799996      -3.79262678E-02
  -1.06599998      -3.44429202E-02
  -1.06400001      -3.18475366E-02
  -1.06200004      -3.14063095E-02
  -1.05999994      -3.42761725E-02
  -1.05799997      -4.06527966E-02
  -1.05599999      -4.91087064E-02
  -1.05400002      -5.67362681E-02
  -1.05200005      -6.03548475E-02
  -1.04999995      -5.80716245E-02
  -1.04799998      -5.03919274E-02
  -1.04600000      -4.02226672E-02
  -1.04400003      -3.15650702E-02
  -1.04200006      -2.76936125E-02
  -1.03999996      -2.97702495E-02
  -1.03799999      -3.65287662E-02
  -1.03600001      -4.51602414E-02
  -1.03400004      -5.26973344E-02
  -1.03199995      -5.71891405E-02
  -1.02999997      -5.80866635E-02
  -1.02800000      -5.58791384E-02
  -1.02600002      -5.14894500E-02
  -1.02400005      -4.58353683E-02
  -1.02199996      -3.97748239E-02
  -1.01999998      -3.43216956E-02
  -1.01800001      -3.06711197E-02
  -1.01600003      -2.99876761E-02
  -1.01400006      -3.28195840E-02
  -1.01199996      -3.85876894E-02
  -1.00999999      -4.55801114E-02
  -1.00800002      -5.14118969E-02
  -1.00600004      -5.40144481E-02
  -1.00399995      -5.25038168E-02
  -1.00199997      -4.75681685E-02
  -1.00000000      -4.11528051E-02
 -0.998000026      -3.55319791E-02
 -0.995999992      -3.23117226E-02
 -0.994000018      -3.18099111E-02
 -0.991999984      -3.32171321E-02
 -0.990000010      -3.52361351E-02
 -0.987999976      -3.69315818E-02
 -0.986000001      -3.82054225E-02
 -0.984000027      -3.95697542E-02
 -0.981999993      -4.15576659E-02
 -0.980000019      -4.41165194E-02
 -0.977999985      -4.64245565E-02
 -0.976000011      -4.73657139E-02
 -0.973999977      -4.61906493E-02
 -0.972000003      -4.30176109E-02
 -0.970000029      -3.88872176E-02
 -0.967999995      -3.52253169E-02
 -0.966000021      -3.32155228E-02
 -0.963999987      -3.33277509E-02
 -0.962000012      -3.52843441E-02
 -0.959999979      -3.82445976E-02
 -0.958000004      -4.11851108E-02
 -0.955999970      -4.31058668E-02
 -0.953999996      -4.32602242E-02
 -0.952000022      -4.13216762E-02
 -0.949999988      -3.75488028E-02
 -0.948000014      -3.28816846E-02
 -0.945999980      -2.87766904E-02
 -0.944000006      -2.66588833E-02
 -0.941999972      -2.73157395E-02
 -0.939999998      -3.04444619E-02
 -0.938000023      -3.45943943E-02
 -0.935999990      -3.78816798E-02
 -0.934000015      -3.87950093E-02
 -0.931999981      -3.69214527E-02
 -0.930000007      -3.30772623E-02
 -0.927999973      -2.89203227E-02
 -0.925999999      -2.60586534E-02
 -0.924000025      -2.54024677E-02
 -0.921999991      -2.67632194E-02
 -0.920000017      -2.90443692E-02
 -0.917999983      -3.09063084E-02
 -0.916000009      -3.13613378E-02
 -0.913999975      -3.02398726E-02
 -0.912000000      -2.81041637E-02
 -0.910000026      -2.59037912E-02
 -0.907999992      -2.44683884E-02
 -0.906000018      -2.41385140E-02
 -0.903999984      -2.46824436E-02
 -0.902000010      -2.55391523E-02
 -0.899999976      -2.61694528E-02
 -0.898000002      -2.63545997E-02
 -0.896000028      -2.61636097E-02
 -0.893999994      -2.57425774E-02
 -0.892000020      -2.51808818E-02
 -0.889999986      -2.43630223E-02
 -0.888000011      -2.32212432E-02
 -0.885999978      -2.18309518E-02
 -0.884000003      -2.04630587E-02
 -0.882000029      -1.94207579E-02
 -0.879999995      -1.87645443E-02
 -0.878000021      -1.82087682E-02
 -0.875999987      -1.71816833E-02
 -0.874000013      -1.53379012E-02
 -0.871999979      -1.27933994E-02
 -0.870000005      -1.02661662E-02
 -0.867999971      -8.66743177E-03
 -0.865999997      -8.61456990E-03
 -0.864000022      -1.00453598E-02
 -0.861999989      -1.22050541E-02
 -0.860000014      -1.39903259E-02
 -0.857999980      -1.44916559E-02
 -0.856000006      -1.33046713E-02
 -0.853999972      -1.06790829E-02
 -0.851999998      -7.34042702E-03
 -0.850000024      -4.21807542E-03
 -0.847999990      -2.15706043E-03
 -0.846000016      -1.75948429E-03
 -0.843999982      -3.13756894E-03
 -0.842000008      -5.76583762E-03
 -0.839999974      -8.56383704E-03
 -0.838000000      -1.01315696E-02
 -0.836000025      -9.36730765E-03
 -0.833999991      -6.05318323E-03
 -0.832000017      -1.11524970E-03
 -0.829999983       3.65040847E-03
 -0.828000009       6.41907798E-03
 -0.825999975       6.23582024E-03
 -0.824000001       3.70156975E-03
 -0.822000027       7.59149902E-04
 -0.819999993      -2.65617389E-04
 -0.818000019       2.18574237E-03
 -0.815999985       7.88402371E-03
 -0.814000010       1.48412623E-02
 -0.811999977       2.00776160E-02
 -0.810000002       2.11927313E-02
 -0.808000028       1.75217520E-02
 -0.805999994       1.07231988E-02
 -0.804000020       4.08832636E-03
 -0.801999986       1.00940466E-03
 -0.800000012       3.41829262E-03
 -0.797999978       1.08654210E-02
 -0.796000004       2.07375437E-02
 -0.794000030       2.95186695E-02
 -0.791999996       3.45176160E-02
 -0.790000021       3.50137837E-02
 -0.787999988       3.23536545E-02
 -0.786000013       2.89568566E-02
 -0.783999979       2.66563687E-02
 -0.782000005       2.59580277E-02
 -0.779999971       2.58412585E-02
 -0.777999997       2.48296950E-02
 -0.776000023       2.22010203E-02
 -0.773999989       1.88503638E-02
 -0.772000015       1.69075839E-02
 -0.769999981       1.87296737E-02
 -0.768000007       2.53713485E-02
 -0.765999973       3.58830430E-02
 -0.763999999       4.74544615E-02
 -0.762000024       5.65711930E-02
 -0.759999990       6.04708493E-02
 -0.758000016       5.79787754E-02
 -0.755999982       5.01387045E-02
 -0.754000008       3.97203490E-02
 -0.751999974       3.01331170E-02
 -0.750000000       2.47543268E-02
 -0.748000026       2.55521033E-02
 -0.745999992       3.27511691E-02
 -0.744000018       4.45978567E-02
 -0.741999984       5.78403883E-02
 -0.740000010       6.87572137E-02
 -0.737999976       7.45012984E-02
 -0.736000001       7.40614459E-02
 -0.734000027       6.84245527E-02
 -0.731999993       6.01581484E-02
 -0.730000019       5.24486490E-02
 -0.727999985       4.77663465E-02
 -0.726000011       4.73499149E-02
 -0.723999977       5.09963967E-02
 -0.722000003       5.74832670E-02
 -0.720000029       6.50361776E-02
 -0.717999995       7.21546635E-02
 -0.716000021       7.77377859E-02
 -0.713999987       8.13668296E-02
 -0.712000012       8.30081031E-02
 -0.709999979       8.29155445E-02
 -0.708000004       8.13788921E-02
 -0.705999970       7.86956102E-02
 -0.703999996       7.51662999E-02
 -0.702000022       7.15146586E-02
 -0.699999988       6.87783211E-02
 -0.698000014       6.82460815E-02
 -0.695999980       7.10429773E-02
 -0.694000006       7.74225444E-02
 -0.691999972       8.63845274E-02
 -0.689999998       9.59257111E-02
 -0.688000023      0.103621587    