  -2.40000010       0.00000000    
  -2.39800000       0.00000000    
  -2.39599991       0.00000000    
  -2.39400005       0.00000000    
  -2.39199996       0.00000000    
  -2.39000010       0.00000000    
  -2.38800001      -1.55583449E-10
  -2.38599992      -1.47843471E-09
  -2.38400006      -6.42123776E-09
  -2.38199997      -1.66541962E-08
  -2.38000011      -2.74200023E-08
  -2.37800002      -2.29678196E-08
  -2.37599993       2.64416364E-08
  -2.37400007       1.60797711E-07
  -2.37199998       3.47887749E-07
  -2.36999989       2.17751236E-07
  -2.36800003      -1.10680651E-06
  -2.36599994      -3.97949543E-06
  -2.36400008      -5.18047864E-06
  -2.36199999       4.19606658E-06
  -2.35999990       3.14536956E-05
  -2.35800004       6.02951950E-05
  -2.35599995       3.15076031E-05
  -2.35400009      -1.26625629E-04
  -2.35200000      -3.84005136E-04
  -2.34999990      -4.77091991E-04
  -2.34800005       3.58231773E-05
  -2.34599996       1.34260824E-03
  -2.34400010       2.72393133E-03
  -2.34200001       2.37223925E-03
  -2.33999991      -1.48839841E-03
  -2.33800006      -8.25617090E-03
  -2.33599997      -1.31722447E-02
  -2.33400011      -8.86685401E-03
  -2.33200002       8.72541033E-03
  -2.32999992       3.34109999E-02
  -2.32800007       4.76421304E-02
  -2.32599998       3.20340209E-02
  -2.32399988      -1.86345559E-02
  -2.32200003      -8.58920515E-02
  -2.31999993     -0.135419413    
  -2.31800008     -0.137111396    
  -2.31599998      -7.59975463E-02
  -2.31399989       6.03874922E-02
  -2.31200004      0.296153963    
  -2.30999994      0.628391564    
  -2.30800009      0.911781609    
  -2.30599999      0.756628990    
  -2.30399990     -0.353683472    
  -2.30200005      -2.56984520    
  -2.29999995      -4.97862625    
  -2.29800010      -5.33223629    
  -2.29600000     -0.999868870    
  -2.29399991       8.66930294    
  -2.29200006       19.7474766    
  -2.28999996       23.3529186    
  -2.28800011       9.75650787    
  -2.28600001      -23.3708496    
  -2.28399992      -63.0956421    
  -2.28200006      -81.1532745    
  -2.27999997      -47.1481400    
  -2.27800012       47.5517311    
  -2.27600002       168.568314    
  -2.27399993       239.070023    
  -2.27200007       174.485596    
  -2.26999998      -56.8338890    
  -2.26799989      -380.058289    
  -2.26600003      -612.057190    
  -2.26399994      -538.918030    
  -2.26200008      -54.4886551    
  -2.25999999       711.673279    
  -2.25799990       1373.23230    
  -2.25600004       1435.29626    
  -2.25399995       582.287598    
  -2.25200009      -1032.72363    
  -2.25000000      -2691.71338    
  -2.24799991      -3349.08545    
  -2.24600005      -2175.77808    
  -2.24399996       827.394348    
  -2.24200010       4514.76367    
  -2.24000001       6885.40137    
  -2.23799992       6006.90625    
  -2.23600006       1217.44653    
  -2.23399997      -6037.31543    
  -2.23200011      -12357.0410    
  -2.23000002      -13749.2266    
  -2.22799993      -7765.03320    
  -2.22600007       4612.38086    
  -2.22399998       18491.5312    
  -2.22199988       26674.2070    
  -2.22000003       22986.5469    
  -2.21799994       5923.95703    
  -2.21600008      -19325.0078    
  -2.21399999      -41957.0820    
  -2.21199989      -49839.9766    
  -2.21000004      -35394.6133    
  -2.20799994      -303.727539    
  -2.20600009       43579.9688    
  -2.20400000       78169.2578    
  -2.20199990       86595.9609    
  -2.20000005       60898.1094    
  -2.19799995       6238.68750    
  -2.19600010      -60523.0781    
  -2.19400001      -117295.125    
  -2.19199991      -145055.203    
  -2.19000006      -133925.172    
  -2.18799996      -84417.8750    
  -2.18600011      -4304.59570    
  -2.18400002       95658.2812    
  -2.18199992       203263.047    
  -2.18000007       301992.469    
  -2.17799997       366106.281    
  -2.17600012       359224.000    
  -2.17400002       241843.641    
  -2.17199993      -11038.3066    
  -2.17000008      -387741.938    
  -2.16799998      -824069.500    
  -2.16599989      -1205036.75    
  -2.16400003      -1389259.00    
  -2.16199994      -1250816.25    
  -2.16000009      -724212.000    
  -2.15799999       164863.469    
  -2.15599990       1294641.00    
  -2.15400004       2468552.75    
  -2.15199995       3452178.25    
  -2.15000010       4011605.50    
  -2.14800000       3944447.00    
  -2.14599991       3105432.00    
  -2.14400005       1436100.75    
  -2.14199996      -994883.375    
  -2.14000010      -3948625.25    
  -2.13800001      -6995523.50    
  -2.13599992      -9550526.00    
  -2.13400006      -10983927.0    
  -2.13199997      -10793953.0    
  -2.13000011      -8787536.00    
  -2.12800002      -5192641.00    
  -2.12599993      -638078.375    
  -2.12400007       4012851.25    
  -2.12199998       7920338.00    
  -2.11999989       10511560.0    
  -2.11800003       11601086.0    
  -2.11599994       11334988.0    
  -2.11400008       9996458.00    
  -2.11199999       7790325.00    
  -2.10999990       4744303.50    
  -2.10800004       805617.875    
  -2.10599995      -3904053.75    
  -2.10400009      -8824940.00    
  -2.10200000      -12878468.0    
  -2.09999990      -14695522.0    
  -2.09800005      -13126205.0    
  -2.09599996      -7834424.50    
  -2.09400010       311839.344    
  -2.09200001       9296859.00    
  -2.08999991       16521096.0    
  -2.08800006       19696256.0    
  -2.08599997       17716694.0    
  -2.08400011       11129573.0    
  -2.08200002       1981464.88    
  -2.07999992      -6913552.00    
  -2.07800007      -12985714.0    
  -2.07599998      -14785043.0    
  -2.07399988      -12378155.0    
  -2.07200003      -7149423.00    
  -2.06999993      -1151750.50    
  -2.06800008       3676074.50    
  -2.06599998       6102004.00    
  -2.06399989       5821588.00    
  -2.06200004       3324700.00    
  -2.05999994      -429036.500    
  -2.05800009      -4338646.50    
  -2.05599999      -7390250.50    
  -2.05399990      -8796711.00    
  -2.05200005      -8119318.00    
  -2.04999995      -5407193.00    
  -2.04800010      -1296730.75    
  -2.04600000       3054212.00    
  -2.04399991       6288781.50    
  -2.04200006       7381583.50    
  -2.03999996       6158383.00    
  -2.03800011       3506089.25    
  -2.03600001       1067512.25    
  -2.03399992       467517.000    
  -2.03200006       2403995.00    
  -2.02999997       6087909.00    
  -2.02800012       9412349.00    
  -2.02600002       9886974.00    
  -2.02399993       5952370.00    
  -2.02200007      -1981057.25    
  -2.01999998      -11368754.0    
  -2.01799989      -18449644.0    
  -2.01600003      -19903782.0    
  -2.01399994      -14484931.0    
  -2.01200008      -3805869.75    
  -2.00999999       8177021.00    
  -2.00799990       16806520.0    
  -2.00600004       18750438.0    
  -2.00399995       13453581.0    
  -2.00200009       3324619.25    
  -2.00000000      -7415836.50    
  -1.99800003      -14647230.0    
  -1.99600005      -16090387.0    
  -1.99399996      -12073230.0    
  -1.99199998      -5041329.00    
  -1.99000001       1827843.50    
  -1.98800004       6135906.00    
  -1.98599994       7146181.50    
  -1.98399997       5694868.00    
  -1.98199999       3341703.00    
  -1.98000002       1354183.50    
  -1.97800004       130606.750    
  -1.97599995      -672308.750    
  -1.97399998      -1507831.00    
  -1.97200000      -2313059.00    
  -1.97000003      -2366313.50    
  -1.96800005      -765549.250    
  -1.96599996       2768741.50    
  -1.96399999       7316864.50    
  -1.96200001       10870129.0    
  -1.96000004       11195938.0    
  -1.95799994       7056529.00    
  -1.95599997      -886349.750    
  -1.95400000      -10043823.0    
  -1.95200002      -16875576.0    
  -1.95000005      -18457502.0    
  -1.94799995      -13886052.0    
  -1.94599998      -4806837.50    
  -1.94400001       5227935.00    
  -1.94200003       12291926.0    
  -1.94000006       13788218.0    
  -1.93799996       9528205.00    
  -1.93599999       1706342.88    
  -1.93400002      -6171180.50    
  -1.93200004      -10862117.0    
  -1.92999995      -10730526.0    
  -1.92799997      -6284351.00    
  -1.92600000       245241.000    
  -1.92400002       5991546.00    
  -1.92200005       8658996.00    
  -1.91999996       7328462.00    
  -1.91799998       2599465.50    
  -1.91600001      -3861036.50    
  -1.91400003      -10057574.0    
  -1.91199994      -14338033.0    
  -1.90999997      -15765897.0    
  -1.90799999      -14155521.0    
  -1.90600002      -9891490.00    
  -1.90400004      -3703880.50    
  -1.90199995       3482064.75    
  -1.89999998       10607456.0    
  -1.89800000       16523554.0    
  -1.89600003       20108348.0    
  -1.89400005       20496022.0    
  -1.89199996       17371510.0    
  -1.88999999       11206563.0    
  -1.88800001       3294995.25    
  -1.88600004      -4498037.00    
  -1.88399994      -10242627.0    
  -1.88199997      -12549290.0    
  -1.88000000      -11041227.0    
  -1.87800002      -6485289.00    
  -1.87600005      -501708.750    
  -1.87399995       5045547.00    
  -1.87199998       8723729.00    
  -1.87000000       9978475.00    
  -1.86800003       9163076.00    
  -1.86600006       7164193.50    
  -1.86399996       4839049.00    
  -1.86199999       2571166.50    
  -1.86000001       178838.125    
  -1.85800004      -2790811.25    
  -1.85599995      -6570010.50    
  -1.85399997      -10787292.0    
  -1.85200000      -14442946.0    
  -1.85000002      -16292869.0    
  -1.84800005      -15453806.0    
  -1.84599996      -11905107.0    
  -1.84399998      -6603042.50    
  -1.84200001      -1125968.12    
  -1.84000003       2980714.50    
  -1.83800006       4828102.50    
  -1.83599997       4465490.00    
  -1.83399999       2701132.75    
  -1.83200002       597038.750    
  -1.83000004      -1058637.00    
  -1.82799995      -2010687.62    
  -1.82599998      -2421686.75    
  -1.82400000      -2520095.25    
  -1.82200003      -2295434.25    
  -1.82000005      -1481428.25    
  -1.81799996       145168.500    
  -1.81599998       2364726.75    
  -1.81400001       4341205.50    
  -1.81200004       4889666.00    
  -1.80999994       3119718.50    
  -1.80799997      -891189.500    
  -1.80599999      -5831687.00    
  -1.80400002      -9554295.00    
  -1.80200005      -10024515.0    
  -1.79999995      -6364235.00    
  -1.79799998       576283.500    
  -1.79600000       8468396.00    
  -1.79400003       14497994.0    
  -1.79200006       16614828.0    
  -1.78999996       14404273.0    
  -1.78799999       9147186.00    
  -1.78600001       3069315.75    
  -1.78400004      -1789957.50    
  -1.78199995      -4480124.50    
  -1.77999997      -5361854.00    
  -1.77800000      -5598054.00    
  -1.77600002      -6266210.00    
  -1.77400005      -7632151.00    
  -1.77199996      -8997542.00    
  -1.76999998      -9181910.00    
  -1.76800001      -7328422.50    
  -1.76600003      -3546039.50    
  -1.76400006       995167.625    
  -1.76199996       4578695.50    
  -1.75999999       5783707.50    
  -1.75800002       4193902.25    
  -1.75600004       595725.438    
  -1.75399995      -3423252.25    
  -1.75199997      -6240875.50    
  -1.75000000      -6919352.50    
  -1.74800003      -5520450.00    
  -1.74600005      -2909481.75    
  -1.74399996      -222631.000    
  -1.74199998       1673395.75    
  -1.74000001       2448685.75    
  -1.73800004       2227732.00    
  -1.73599994       1300764.12    
  -1.73399997      -130772.500    
  -1.73199999      -2001854.50    
  -1.73000002      -4229035.00    
  -1.72800004      -6511221.00    
  -1.72599995      -8273004.00    
  -1.72399998      -8832588.00    
  -1.72200000      -7713813.50    
  -1.72000003      -4916340.00    
  -1.71800005      -981743.750    
  -1.71599996       3183360.00    
  -1.71399999       6622071.50    
  -1.71200001       8612420.00    
  -1.71000004       8803309.00    
  -1.70799994       7195168.00    
  -1.70599997       4057347.50    
  -1.70400000      -119886.750    
  -1.70200002      -4614239.00    
  -1.70000005      -8475308.00    
  -1.69799995      -10656008.0    
  -1.69599998      -10319518.0    
  -1.69400001      -7237570.00    
  -1.69200003      -2078207.00    
  -1.69000006       3629223.00    
  -1.68799996       7939545.00    
  -1.68599999       9227202.00    
  -1.68400002       6900956.00    
  -1.68200004       1748331.75    
  -1.67999995      -4308268.00    
  -1.67799997      -8985027.00    
  -1.67600000      -10611083.0    
  -1.67400002      -8854142.00    
  -1.67200005      -4841350.50    
  -1.66999996      -610731.500    
  -1.66799998       1849674.00    
  -1.66600001       1510287.25    
  -1.66400003      -1273391.00    
  -1.66199994      -5002623.00    
  -1.65999997      -7799631.00    
  -1.65799999      -8306432.50    
  -1.65600002      -6287450.00    
  -1.65400004      -2680034.25    
  -1.65199995       892081.000    
  -1.64999998       2879060.50    
  -1.64800000       2487442.00    
  -1.64600003      -6667.62500    
  -1.64400005      -3415756.00    
  -1.64199996      -6175698.00    
  -1.63999999      -7019609.00    
  -1.63800001      -5516689.50    
  -1.63600004      -2263536.00    
  -1.63399994       1348120.50    
  -1.63199997       3701835.00    
  -1.63000000       3637405.25    
  -1.62800002       965658.188    
  -1.62600005      -3416553.50    
  -1.62399995      -7873820.00    
  -1.62199998      -10710991.0    
  -1.62000000      -10888230.0    
  -1.61800003      -8451769.00    
  -1.61600006      -4481337.00    
  -1.61399996      -579222.500    
  -1.61199999       1853266.62    
  -1.61000001       2207026.50    
  -1.60800004       852527.250    
  -1.60599995      -1153829.88    
  -1.60399997      -2667619.00    
  -1.60200000      -3046493.75    
  -1.60000002      -2425271.50    
  -1.59800005      -1549269.25    
  -1.59599996      -1278328.88    
  -1.59399998      -2047033.00    
  -1.59200001      -3589109.50    
  -1.59000003      -5082070.50    
  -1.58800006      -5629415.50    
  -1.58599997      -4803942.50    
  -1.58399999      -2943903.00    
  -1.58200002      -1025843.62    
  -1.58000004      -179488.250    
  -1.57799995      -1109939.25    
  -1.57599998      -3728591.00    
  -1.57400000      -7179501.50    
  -1.57200003      -10221643.0    
  -1.57000005      -11756620.0    
  -1.56799996      -11240857.0    
  -1.56599998      -8822713.00    
  -1.56400001      -5207124.50    
  -1.56200004      -1368946.25    
  -1.55999994       1737702.50    
  -1.55799997       3390353.25    
  -1.55599999       3228025.25    
  -1.55400002       1323330.75    
  -1.55200005      -1797132.50    
  -1.54999995      -5232906.50    
  -1.54799998      -7936183.00    
  -1.54600000      -9063893.00    
  -1.54400003      -8337374.00    
  -1.54200006      -6231549.00    
  -1.53999996      -3844625.75    
  -1.53799999      -2445517.25    
  -1.53600001      -2866546.50    
  -1.53400004      -5029976.50    
  -1.53199995      -7880155.00    
  -1.52999997      -9815167.00    
  -1.52800000      -9469053.00    
  -1.52600002      -6480457.50    
  -1.52400005      -1846134.25    
  -1.52199996       2382336.75    
  -1.51999998       3990143.00    
  -1.51800001       1686873.12    
  -1.51600003      -4133239.50    
  -1.51400006      -11379009.0    
  -1.51199996      -17067278.0    
  -1.50999999      -18609300.0    
  -1.50800002      -14996034.0    
  -1.50600004      -7311540.00    
  -1.50399995       1664419.75    
  -1.50199997       8599514.00    
  -1.50000000       10963995.0    
  -1.49800003       8008188.00    
  -1.49600005       963528.438    
  -1.49399996      -7561755.00    
  -1.49199998      -14678231.0    
  -1.49000001      -18304940.0    
  -1.48800004      -17825630.0    
  -1.48599994      -14106248.0    
  -1.48399997      -8945968.00    
  -1.48199999      -4264468.50    
  -1.48000002      -1371493.50    
  -1.47800004      -616250.750    
  -1.47599995      -1491618.62    
  -1.47399998      -3083369.00    
  -1.47200000      -4606419.00    
  -1.47000003      -5759429.00    
  -1.46800005      -6747754.00    
  -1.46599996      -8008391.50    
  -1.46399999      -9823879.00    
  -1.46200001      -12047445.0    
  -1.46000004      -14086342.0    
  -1.45799994      -15142150.0    
  -1.45599997      -14569593.0    
  -1.45400000      -12182172.0    
  -1.45200002      -8390648.00    
  -1.45000005      -4129150.00    
  -1.44799995      -614008.750    
  -1.44599998       991427.750    
  -1.44400001      -59646.0000    
  -1.44200003      -3792938.00    
  -1.44000006      -9365564.00    
  -1.43799996      -15179143.0    
  -1.43599999      -19313552.0    
  -1.43400002      -20177642.0    
  -1.43200004      -17170496.0    
  -1.42999995      -11058830.0    
  -1.42799997      -3847149.50    
  -1.42600000       1885345.25    
  -1.42400002       3958725.00    
  -1.42200005       1491394.50    
  -1.41999996      -4674882.00    
  -1.41799998      -12235994.0    
  -1.41600001      -18298602.0    
  -1.41400003      -20532608.0    
  -1.41199994      -18134832.0    
  -1.40999997      -12174361.0    
  -1.40799999      -5178707.00    
  -1.40600002      -93281.0000    
  -1.40400004       945422.000    
  -1.40199995      -2499897.50    
  -1.39999998      -9004128.00    
  -1.39800000      -15892797.0    
  -1.39600003      -20381284.0    
  -1.39400005      -20725912.0    
  -1.39199996      -16898566.0    
  -1.38999999      -10538584.0    
  -1.38800001      -4235879.00    
  -1.38600004      -482254.250    
  -1.38399994      -714178.250    
  -1.38199997      -4813819.00    
  -1.38000000      -11195082.0    
  -1.37800002      -17415858.0    
  -1.37600005      -21087856.0    
  -1.37399995      -20755462.0    
  -1.37199998      -16452293.0    
  -1.37000000      -9711086.00    
  -1.36800003      -3001109.75    
  -1.36600006       1205308.25    
  -1.36399996       1395751.00    
  -1.36199999      -2409820.50    
  -1.36000001      -8722271.00    
  -1.35800004      -15263242.0    
  -1.35599995      -19936994.0    
  -1.35399997      -21657892.0    
  -1.35200000      -20657592.0    
  -1.35000002      -18170910.0    
  -1.34800005      -15719538.0    
  -1.34599996      -14361142.0    
  -1.34399998      -14274217.0    
  -1.34200001      -14835915.0    
  -1.34000003      -15090927.0    
  -1.33800006      -14350008.0    
  -1.33599997      -12602319.0    
  -1.33399999      -10548340.0    
  -1.33200002      -9248015.00    
  -1.33000004      -9570432.00    
  -1.32799995      -11718166.0    
  -1.32599998      -15046607.0    
  -1.32400000      -18310900.0    
  -1.32200003      -20194492.0    
  -1.32000005      -19916492.0    
  -1.31799996      -17587310.0    
  -1.31599998      -14174065.0    
  -1.31400001      -11083904.0    
  -1.31200004      -9559435.00    
  -1.30999994      -10177827.0    
  -1.30799997      -12656649.0    
  -1.30599999      -16019859.0    
  -1.30400002      -19020504.0    
  -1.30200005      -20614840.0    
  -1.29999995      -20335564.0    
  -1.29799998      -18429472.0    
  -1.29600000      -15747980.0    
  -1.29400003      -13430736.0    
  -1.29200006      -12466973.0    
  -1.28999996      -13299480.0    
  -1.28799999      -15624306.0    
  -1.28600001      -18484732.0    
  -1.28400004      -20671630.0    
  -1.28199995      -21268958.0    
  -1.27999997      -20078298.0    
  -1.27800000      -17707678.0    
  -1.27600002      -15272270.0    
  -1.27400005      -13840350.0    
  -1.27199996      -13954083.0    
  -1.26999998      -15383974.0    
  -1.26800001      -17301012.0    
  -1.26600003      -18704328.0    
  -1.26400006      -18896774.0    
  -1.26199996      -17782844.0    
  -1.25999999      -15868890.0    
  -1.25800002      -14010264.0    
  -1.25600004      -13064064.0    
  -1.25399995      -13540953.0    
  -1.25199997      -15454816.0    
  -1.25000000      -18310602.0    
  -1.24800003      -21330138.0    
  -1.24600005      -23721818.0    
  -1.24399996      -24946442.0    
  -1.24199998      -24867832.0    
  -1.24000001      -23723962.0    
  -1.23800004      -21973276.0    
  -1.23599994      -20104092.0    
  -1.23399997      -18500292.0    
  -1.23199999      -17414330.0    
  -1.23000002      -16999838.0    
  -1.22800004      -17358912.0    
  -1.22599995      -18503772.0    
  -1.22399998      -20277854.0    
  -1.22200000      -22311166.0    
  -1.22000003      -24058718.0    
  -1.21800005      -24955212.0    
  -1.21599996      -24606528.0    
  -1.21399999      -22952068.0    
  -1.21200001      -20327578.0    
  -1.21000004      -17410570.0    
  -1.20799994      -15077719.0    
  -1.20599997      -14184643.0    
  -1.20400000      -15279836.0    
  -1.20200002      -18400368.0    
  -1.20000005      -22922198.0    
  -1.19799995      -27666796.0    
  -1.19599998      -31220324.0    
  -1.19400001      -32473508.0    
  -1.19200003      -31057336.0    
  -1.19000006      -27557796.0    
  -1.18799996      -23337544.0    
  -1.18599999      -19972166.0    
  -1.18400002      -18655202.0    
  -1.18200004      -19713092.0    
  -1.17999995      -22487822.0    
  -1.17799997      -25644738.0    
  -1.17600000      -27712398.0    
  -1.17400002      -27686016.0    
  -1.17200005      -25471184.0    
  -1.16999996      -21930608.0    
  -1.16799998      -18574500.0    
  -1.16600001      -16928796.0    
  -1.16400003      -17850352.0    
  -1.16199994      -21053376.0    
  -1.15999997      -25177906.0    
  -1.15799999      -28367466.0    
  -1.15600002      -29157140.0    
  -1.15400004      -27235884.0    
  -1.15199995      -23670880.0    
  -1.14999998      -20431112.0    
  -1.14800000      -19440016.0    
  -1.14600003      -21555920.0    
  -1.14400005      -26102408.0    
  -1.14199996      -31108176.0    
  -1.13999999      -34249528.0    
  -1.13800001      -33915956.0    
  -1.13600004      -30015480.0    
  -1.13399994      -24047460.0    
  -1.13199997      -18462824.0    
  -1.13000000      -15596982.0    
  -1.12800002      -16680142.0    
  -1.12600005      -21303536.0    
  -1.12399995      -27620182.0    
  -1.12199998      -33133880.0    
  -1.12000000      -35763048.0    
  -1.11800003      -34680896.0    
  -1.11600006      -30592200.0    
  -1.11399996      -25353682.0    
  -1.11199999      -21098748.0    
  -1.11000001      -19344234.0    
  -1.10800004      -20404478.0    
  -1.10599995      -23442560.0    
  -1.10399997      -26932924.0    
  -1.10200000      -29414628.0    
  -1.10000002      -30043510.0    
  -1.09800005      -28885950.0    
  -1.09599996      -26745052.0    
  -1.09399998      -24813580.0    
  -1.09200001      -24125014.0    
  -1.09000003      -25173728.0    
  -1.08800006      -27678160.0    
  -1.08599997      -30674716.0    
  -1.08399999      -32907758.0    
  -1.08200002      -33355332.0    
  -1.08000004      -31713904.0    
  -1.07799995      -28661040.0    
  -1.07599998      -25539528.0    
  -1.07400000      -23795428.0    
  -1.07200003      -24229054.0    
  -1.07000005      -26564356.0    
  -1.06799996      -29580504.0    
  -1.06599998      -31671430.0    
  -1.06400001      -31657282.0    
  -1.06200004      -29397668.0    
  -1.05999994      -25812644.0    
  -1.05799997      -22495480.0    
  -1.05599999      -20969156.0    
  -1.05400002      -21987012.0    
  -1.05200005      -25237680.0    
  -1.04999995      -29488238.0    
  -1.04799998      -33107274.0    
  -1.04600000      -34770900.0    
  -1.04400003      -33932640.0    
  -1.04200006      -31027900.0    
  -1.03999996      -27234462.0    
  -1.03799999      -24003380.0    
  -1.03600001      -22451968.0    
  -1.03400004      -22948528.0    
  -1.03199995      -25061826.0    
  -1.02999997      -27809896.0    
  -1.02800000      -30071750.0    
  -1.02600002      -31061552.0    
  -1.02400005      -30549864.0    
  -1.02199996      -28860986.0    
  -1.01999998      -26699584.0    
  -1.01800001      -24868972.0    
  -1.01600003      -24002206.0    
  -1.01400006      -24365470.0    
  -1.01199996      -25754576.0    
  -1.00999999      -27613544.0    
  -1.00800002      -29195288.0    
  -1.00600004      -29925334.0    
  -1.00399995      -29630236.0    
  -1.00199997      -28611086.0    
  -1.00000000      -27487204.0    
 -0.998000026      -26795528.0    
 -0.995999992      -26693916.0    
 -0.994000018      -26838028.0    
 -0.991999984      -26618444.0    
 -0.990000010      -25541020.0    
 -0.987999976      -23598248.0    
 -0.986000001      -21400522.0    
 -0.984000027      -19892436.0    
 -0.981999993      -19892348.0    
 -0.980000019      -21673936.0    
 -0.977999985      -24782762.0    
 -0.976000011      -28189144.0    
 -0.973999977      -30714948.0    
 -0.972000003      -31487160.0    
 -0.970000029      -30264636.0    
 -0.967999995      -27523168.0    
 -0.966000021      -24255162.0    
 -0.963999987      -21592066.0    
 -0.962000012      -20364260.0    
 -0.959999979      -20799506.0    
 -0.958000004      -22460202.0    
 -0.955999970      -24425454.0    
 -0.953999996      -25750884.0    
 -0.952000022      -25861258.0    
 -0.949999988      -24728706.0    
 -0.948000014      -22823664.0    
 -0.945999980      -20833290.0    
 -0.944000006      -19403516.0    
 -0.941999972      -18870916.0    
 -0.939999998      -19275800.0    
 -0.938000023      -20346602.0    
 -0.935999990      -21700624.0    
 -0.934000015      -22957084.0    
 -0.931999981      -23804076.0    
 -0.930000007      -24042448.0    
 -0.927999973      -23661872.0    
 -0.925999999      -22757134.0    
 -0.924000025      -21540896.0    
 -0.921999991      -20213962.0    
 -0.920000017      -18928656.0    
 -0.917999983      -17776990.0    
 -0.916000009      -16766913.0    
 -0.913999975      -15935856.0    
 -0.912000000      -15299852.0    
 -0.910000026      -14843692.0    
 -0.907999992      -14601388.0    
 -0.906000018      -14599434.0    
 -0.903999984      -14854952.0    
 -0.902000010      -15370734.0    
 -0.899999976      -16058734.0    
 -0.898000002      -16748566.0    
 -0.896000028      -17141858.0    
 -0.893999994      -16952018.0    
 -0.892000020      -16104309.0    
 -0.889999986      -14765395.0    
 -0.888000011      -13418834.0    
 -0.885999978      -12591137.0    
 -0.884000003      -12595876.0    
 -0.882000029      -13341532.0    
 -0.879999995      -14338123.0    
 -0.878000021      -14906814.0    
 -0.875999987      -14472954.0    
 -0.874000013      -12887878.0    
 -0.871999979      -10492010.0    
 -0.870000005      -7967404.00    
 -0.867999971      -6071380.50    
 -0.865999997      -5269661.50    
 -0.864000022      -5649623.50    
 -0.861999989      -6857671.50    
 -0.860000014      -8227564.00    
 -0.857999980      -9066940.00    
 -0.856000006      -8860583.00    
 -0.853999972      -7529951.50    
 -0.851999998      -5498746.50    
 -0.850000024      -3563291.50    
 -0.847999990      -2522946.50    
 -0.846000016      -2824417.00    
 -0.843999982      -4304075.00    
 -0.842000008      -6169102.50    
 -0.839999974      -7368175.50    
 -0.838000000      -6980940.50    
 -0.836000025      -4680305.00    
 -0.833999991      -981082.000    
 -0.832000017       2997113.25    
 -0.829999983       5877498.50    
 -0.828000009       6701215.50    
 -0.825999975       5266346.50    
 -0.824000001       2351583.75    
 -0.822000027      -638552.125    
 -0.819999993      -2266672.50    
 -0.818000019      -1655421.12    
 -0.815999985       1049333.00    
 -0.814000010       4825101.50    
 -0.811999977       8188299.50    
 -0.810000002       10019579.0    
 -0.808000028       9937354.00    
 -0.805999994       8547054.00    
 -0.804000020       6976417.50    
 -0.801999986       6266262.00    
 -0.800000012       6894873.50    
 -0.797999978       8564253.00    
 -0.796000004       10538438.0    
 -0.794000030       12072793.0    
 -0.791999996       12891086.0    
 -0.790000021       13267346.0    
 -0.787999988       13847204.0    
 -0.786000013       15163578.0    
 -0.783999979       17198258.0    
 -0.782000005       19421122.0    
 -0.779999971       20970542.0    
 -0.777999997       21122916.0    
 -0.776000023       19689624.0    
 -0.773999989       17220706.0    
 -0.772000015       14817359.0    
 -0.769999981       13661618.0    
 -0.768000007       14550334.0    
 -0.765999973       17532254.0    
 -0.763999999       21960732.0    
 -0.762000024       26719444.0    
 -0.759999990       30709196.0    
 -0.758000016       33072332.0    
 -0.755999982       33525274.0    
 -0.754000008       32323184.0    
 -0.751999974       30037988.0    
 -0.750000000       27553660.0    
 -0.748000026       25595392.0    
 -0.745999992       24738974.0    
 -0.744000018       25134524.0    
 -0.741999984       26476648.0    
 -0.740000010       28276352.0    
 -0.737999976       30104330.0    
 -0.736000001       31901006.0    
 -0.734000027       33833912.0    
 -0.731999993       36149252.0    
 -0.730000019       39003644.0    
 -0.727999985       41955888.0    
 -0.726000011       44271060.0    
 -0.723999977       45160928.0    
 -0.722000003       44332464.0    
 -0.720000029       42064440.0    
 -0.717999995       39460632.0    
 -0.716000021       37783768.0    
 -0.713999987       38084288.0    
 -0.712000012       40613944.0    
 -0.709999979       44833008.0    
 -0.708000004       49572200.0    
 -0.705999970       53464564.0    
 -0.703999996       55423224.0    
 -0.702000022       55072064.0    
 -0.699999988       52837160.0    
 -0.698000014       49814408.0    
 -0.695999980       47454668.0    
 -0.694000006       46959736.0    
 -0.691999972       48817424.0    
 -0.689999998       52619648.0    
 -0.688000023       57249760.0    