  -2.40000010       0.00000000    
  -2.39800000       0.00000000    
  -2.39599991       0.00000000    
  -2.39400005       0.00000000    
  -2.39199996       0.00000000    
  -2.39000010       0.00000000    
  -2.38800001      -9.24810776E-19
  -2.38599992      -1.02487024E-17
  -2.38400006      -5.53667255E-17
  -2.38199997      -1.83153577E-16
  -2.38000011      -3.79147035E-16
  -2.37800002      -3.88059622E-16
  -2.37599993       3.17246238E-16
  -2.37400007       1.98588187E-15
  -2.37199998       3.66068243E-15
  -2.36999989       3.32001552E-15
  -2.36800003      -4.85332409E-17
  -2.36599994      -5.63742736E-15
  -2.36400008      -1.61692305E-14
  -2.36199999      -4.26657509E-14
  -2.35999990      -8.27042766E-14
  -2.35800004      -6.09068866E-14
  -2.35599995       1.92934522E-13
  -2.35400009       7.62644071E-13
  -2.35200000       1.21454550E-12
  -2.34999990       3.34332497E-13
  -2.34800005      -3.08793486E-12
  -2.34599996      -7.99399609E-12
  -2.34400010      -8.85031284E-12
  -2.34200001       2.67271014E-12
  -2.33999991       2.90256812E-11
  -2.33800006       5.45384640E-11
  -2.33599997       4.27380666E-11
  -2.33400011      -4.10868353E-11
  -2.33200002      -1.82393906E-10
  -2.32999992      -2.78050610E-10
  -2.32800007      -1.62504871E-10
  -2.32599998       2.65362260E-10
  -2.32399988       8.63470184E-10
  -2.32200003       1.16671750E-09
  -2.31999993       5.78729731E-10
  -2.31800008      -1.13613563E-09
  -2.31599998      -3.31440408E-09
  -2.31399989      -4.29804459E-09
  -2.31200004      -2.20019114E-09
  -2.30999994       3.55710617E-09
  -2.30800009       1.07738449E-08
  -2.30599999       1.43933043E-08
  -2.30399990       8.78261819E-09
  -2.30200005      -8.01674904E-09
  -2.29999995      -3.02816794E-08
  -2.29800010      -4.41726087E-08
  -2.29600000      -3.33746399E-08
  -2.29399991       9.88149296E-09
  -2.29200006       7.36120498E-08
  -2.28999996       1.23062776E-07
  -2.28800011       1.13003061E-07
  -2.28600001       1.51126471E-08
  -2.28399992      -1.51245359E-07
  -2.28200006      -3.05914881E-07
  -2.27999997      -3.32317342E-07
  -2.27800012      -1.42053779E-07
  -2.27600002       2.46291904E-07
  -2.27399993       6.64911681E-07
  -2.27200007       8.41106498E-07
  -2.26999998       5.39028065E-07
  -2.26799989      -2.57397232E-07
  -2.26600003      -1.23377333E-06
  -2.26399994      -1.81903511E-06
  -2.26200008      -1.47073911E-06
  -2.25999999      -5.67340166E-08
  -2.25799990       1.89835077E-06
  -2.25600004       3.32712671E-06
  -2.25399995       3.14691420E-06
  -2.25200009       9.79145511E-07
  -2.25000000      -2.37417203E-06
  -2.24799991      -5.10766040E-06
  -2.24600005      -5.32907279E-06
  -2.24399996      -2.30819455E-06
  -2.24200010       2.70984901E-06
  -2.24000001       6.82544623E-06
  -2.23799992       7.05233424E-06
  -2.23600006       2.39909332E-06
  -2.23399997      -4.85693681E-06
  -2.23200011      -9.85883526E-06
  -2.23000002      -7.94484913E-06
  -2.22799993       1.81140035E-06
  -2.22600007       1.45824297E-05
  -2.22399998       2.12470713E-05
  -2.22199988       1.34838338E-05
  -2.22000003      -9.83523478E-06
  -2.21799994      -3.89599409E-05
  -2.21600008      -5.57678359E-05
  -2.21399999      -4.28869316E-05
  -2.21199989       4.43234148E-06
  -2.21000004       7.06056380E-05
  -2.20799994       1.22484082E-04
  -2.20600009       1.24052152E-04
  -2.20400000       5.73217294E-05
  -2.20199990      -6.17872356E-05
  -2.20000005      -1.83612108E-04
  -2.19799995      -2.44851428E-04
  -2.19600010      -2.01214178E-04
  -2.19400001      -5.59195287E-05
  -2.19199991       1.33719848E-04
  -2.19000006       2.79786414E-04
  -2.18799996       3.08908289E-04
  -2.18600011       2.05971868E-04
  -2.18400002       2.98605264E-05
  -2.18199992      -1.13236441E-04
  -2.18000007      -1.30318673E-04
  -2.17799997      -5.16520959E-06
  -2.17600012       1.73285283E-04
  -2.17400002       2.42181166E-04
  -2.17199993       4.93776897E-05
  -2.17000008      -4.46933351E-04
  -2.16799998      -1.11711025E-03
  -2.16599989      -1.67820998E-03
  -2.16400003      -1.79518049E-03
  -2.16199994      -1.22573099E-03
  -2.16000009       5.65094997E-05
  -2.15799999       1.81932352E-03
  -2.15599990       3.63106164E-03
  -2.15400004       4.99417726E-03
  -2.15199995       5.49231283E-03
  -2.15000010       4.89072595E-03
  -2.14800000       3.16307065E-03
  -2.14599991       4.62074822E-04
  -2.14400005      -2.92152027E-03
  -2.14199996      -6.57629222E-03
  -2.14000010      -9.96711943E-03
  -2.13800001      -1.24555985E-02
  -2.13599992      -1.33965146E-02
  -2.13400006      -1.23241041E-02
  -2.13199997      -9.17226262E-03
  -2.13000011      -4.41567041E-03
  -2.12800002       9.79756122E-04
  -2.12599993       5.83286304E-03
  -2.12400007       9.16321762E-03
  -2.12199998       1.05606932E-02
  -2.11999989       1.03101721E-02
  -2.11800003       9.17625520E-03
  -2.11599994       7.93081429E-03
  -2.11400008       6.86646067E-03
  -2.11199999       5.58332540E-03
  -2.10999990       3.21907178E-03
  -2.10800004      -9.43525694E-04
  -2.10599995      -6.79283822E-03
  -2.10400009      -1.30291581E-02
  -2.10200000      -1.74166504E-02
  -2.09999990      -1.76396780E-02
  -2.09800005      -1.24230022E-02
  -2.09599996      -2.37903232E-03
  -2.09400010       9.89026483E-03
  -2.09200001       2.05912683E-02
  -2.08999991       2.61612292E-02
  -2.08800006       2.47123912E-02
  -2.08599997       1.68433506E-02
  -2.08400011       5.42844506E-03
  -2.08200002      -5.54178935E-03
  -2.07999992      -1.25618661E-02
  -2.07800007      -1.39526119E-02
  -2.07599998      -1.03789456E-02
  -2.07399988      -4.37361281E-03
  -2.07200003       8.55329738E-04
  -2.06999993       2.77065928E-03
  -2.06800008       4.40980017E-04
  -2.06599998      -5.25023555E-03
  -2.06399989      -1.20883873E-02
  -2.06200004      -1.74059663E-02
  -2.05999994      -1.89822391E-02
  -2.05800009      -1.56932827E-02
  -2.05599999      -7.81187927E-03
  -2.05399990       3.02139809E-03
  -2.05200005       1.41124511E-02
  -2.04999995       2.23018415E-02
  -2.04800010       2.48089861E-02
  -2.04600000       2.02071685E-02
  -2.04399991       9.23276693E-03
  -2.04200006      -4.98155225E-03
  -2.03999996      -1.75762903E-02
  -2.03800011      -2.35383846E-02
  -2.03600001      -1.97204556E-02
  -2.03399992      -6.48562517E-03
  -2.03200006       1.18674794E-02
  -2.02999997       2.83358656E-02
  -2.02800012       3.58181670E-02
  -2.02600002       3.01109236E-02
  -2.02399993       1.19871460E-02
  -2.02200007      -1.26774339E-02
  -2.01999998      -3.49635668E-02
  -2.01799989      -4.64020893E-02
  -2.01600003      -4.24508937E-02
  -2.01399994      -2.44423691E-02
  -2.01200008       8.76694743E-04
  -2.00999999       2.40408387E-02
  -2.00799990       3.66459340E-02
  -2.00600004       3.46073769E-02
  -2.00399995       1.95609648E-02
  -2.00200009      -2.08065310E-03
  -2.00000000      -2.18855478E-02
  -1.99800003      -3.27249356E-02
  -1.99600005      -3.12868766E-02
  -1.99399996      -1.88827254E-02
  -1.99199998      -4.46723017E-04
  -1.99000001       1.76315755E-02
  -1.98800004       2.98421197E-02
  -1.98599994       3.31711359E-02
  -1.98399997       2.75753811E-02
  -1.98199999       1.54267354E-02
  -1.98000002       3.97388241E-04
  -1.97800004      -1.36875156E-02
  -1.97599995      -2.36937702E-02
  -1.97399998      -2.76539139E-02
  -1.97200000      -2.49869972E-02
  -1.97000003      -1.65773500E-02
  -1.96800005      -4.70397249E-03
  -1.96599996       7.30383676E-03
  -1.96399999       1.57967340E-02
  -1.96200001       1.78627223E-02
  -1.96000004       1.24141490E-02
  -1.95799994       8.50451528E-04
  -1.95599997      -1.30978040E-02
  -1.95400000      -2.44519189E-02
  -1.95200002      -2.87001822E-02
  -1.95000005      -2.35219058E-02
  -1.94799995      -9.81549826E-03
  -1.94599998       8.44705105E-03
  -1.94400001       2.55631246E-02
  -1.94200003       3.61696072E-02
  -1.94000006       3.72471176E-02
  -1.93799996       2.92588677E-02
  -1.93599999       1.59458276E-02
  -1.93400002       2.83002178E-03
  -1.93200004      -4.99444455E-03
  -1.92999995      -4.89711808E-03
  -1.92799997       2.26190384E-03
  -1.92600000       1.25450753E-02
  -1.92400002       2.06249095E-02
  -1.92200005       2.20398251E-02
  -1.91999996       1.50690051E-02
  -1.91799998       1.44370226E-03
  -1.91600001      -1.43795107E-02
  -1.91400003      -2.70398408E-02
  -1.91199994      -3.23952027E-02
  -1.90999997      -2.90692542E-02
  -1.90799999      -1.88404918E-02
  -1.90600002      -5.80896903E-03
  -1.90400004       5.23060653E-03
  -1.90199995       1.05227102E-02
  -1.89999998       8.55023693E-03
  -1.89800000       3.46332788E-04
  -1.89600003      -1.10690137E-02
  -1.89400005      -2.18235645E-02
  -1.89199996      -2.84633301E-02
  -1.88999999      -2.89587174E-02
  -1.88800001      -2.31894646E-02
  -1.88600004      -1.28353182E-02
  -1.88399994      -7.67027144E-04
  -1.88199997       9.84888151E-03
  -1.88000000       1.64651051E-02
  -1.87800002       1.78342499E-02
  -1.87600005       1.42779769E-02
  -1.87399995       7.48529937E-03
  -1.87199998      -8.46553594E-05
  -1.87000000      -6.00508694E-03
  -1.86800003      -8.63461941E-03
  -1.86600006      -7.58077344E-03
  -1.86399996      -3.72528844E-03
  -1.86199999       1.18483859E-03
  -1.86000001       5.21743344E-03
  -1.85800004       6.94120862E-03
  -1.85599995       5.85933635E-03
  -1.85399997       2.45382963E-03
  -1.85200000      -2.11679772E-03
  -1.85000002      -6.47768192E-03
  -1.84800005      -9.43229720E-03
  -1.84599996      -1.01628806E-02
  -1.84399998      -8.26065056E-03
  -1.84200001      -3.71809187E-03
  -1.84000003       2.99965055E-03
  -1.83800006       1.08219143E-02
  -1.83599997       1.80393159E-02
  -1.83399999       2.25711130E-02
  -1.83200002       2.26003602E-02
  -1.83000004       1.73952356E-02
  -1.82799995       7.92409014E-03
  -1.82599998      -3.14917183E-03
  -1.82400000      -1.22643271E-02
  -1.82200003      -1.63403247E-02
  -1.82000005      -1.41545152E-02
  -1.81799996      -7.05296360E-03
  -1.81599998       1.44081423E-03
  -1.81400001       7.06023397E-03
  -1.81200004       6.69438578E-03
  -1.80999994      -1.01024751E-04
  -1.80799997      -1.07191838E-02
  -1.80599999      -2.04988755E-02
  -1.80400002      -2.47288421E-02
  -1.80200005      -2.07920764E-02
  -1.79999995      -9.47963260E-03
  -1.79799998       5.16197132E-03
  -1.79600000       1.74385831E-02
  -1.79400003       2.24047210E-02
  -1.79200006       1.80053301E-02
  -1.78999996       6.01275358E-03
  -1.78799999      -8.67420156E-03
  -1.78600001      -2.00841278E-02
  -1.78400004      -2.36988682E-02
  -1.78199995      -1.83578487E-02
  -1.77999997      -6.71719015E-03
  -1.77800000       5.93526661E-03
  -1.77600002       1.39906779E-02
  -1.77400005       1.39521891E-02
  -1.77199996       5.93383610E-03
  -1.76999998      -6.42233482E-03
  -1.76800001      -1.75643116E-02
  -1.76600003      -2.24645697E-02
  -1.76400006      -1.87967550E-02
  -1.76199996      -7.90232979E-03
  -1.75999999       5.85768372E-03
  -1.75800002       1.70412287E-02
  -1.75600004       2.14623399E-02
  -1.75399995       1.78859849E-02
  -1.75199997       8.36551748E-03
  -1.75000000      -2.84429779E-03
  -1.74800003      -1.12300524E-02
  -1.74600005      -1.39089851E-02
  -1.74399996      -1.06536727E-02
  -1.74199998      -3.69536597E-03
  -1.74000001       3.48203396E-03
  -1.73800004       7.73569383E-03
  -1.73599994       7.53482804E-03
  -1.73399997       3.41284438E-03
  -1.73199999      -2.49134563E-03
  -1.73000002      -7.51805166E-03
  -1.72800004      -9.68202110E-03
  -1.72599995      -8.46965332E-03
  -1.72399998      -4.92786849E-03
  -1.72200000      -1.04933849E-03
  -1.72000003       1.23922026E-03
  -1.71800005       1.00557250E-03
  -1.71599996      -1.28440629E-03
  -1.71399999      -4.08404740E-03
  -1.71200001      -5.64341433E-03
  -1.71000004      -4.99721197E-03
  -1.70799994      -2.54247594E-03
  -1.70599997       1.17506308E-04
  -1.70400000       1.00325537E-03
  -1.70200002      -1.15670369E-03
  -1.70000005      -6.14519650E-03
  -1.69799995      -1.22005278E-02
  -1.69599998      -1.67340264E-02
  -1.69400001      -1.74977854E-02
  -1.69200003      -1.36614554E-02
  -1.69000006      -6.30342215E-03
  -1.68799996       1.91927364E-03
  -1.68599999       7.80557562E-03
  -1.68400002       8.94564856E-03
  -1.68200004       4.80865920E-03
  -1.67999995      -2.89150653E-03
  -1.67799997      -1.07784225E-02
  -1.67600000      -1.51858581E-02
  -1.67400002      -1.37952249E-02
  -1.67200005      -6.81236852E-03
  -1.66999996       2.92243599E-03
  -1.66799998       1.10600330E-02
  -1.66600001       1.36730941E-02
  -1.66400003       9.10680927E-03
  -1.66199994      -1.16304308E-03
  -1.65999997      -1.31330043E-02
  -1.65799999      -2.20728051E-02
  -1.65600002      -2.46300623E-02
  -1.65400004      -2.02094186E-02
  -1.65199995      -1.09900348E-02
  -1.64999998      -6.81422418E-04
  -1.64800000       7.24892505E-03
  -1.64600003       1.09458566E-02
  -1.64400005       1.05381347E-02
  -1.64199996       7.51523534E-03
  -1.63999999       3.62940691E-03
  -1.63800001       3.58722173E-06
  -1.63600004      -3.13103176E-03
  -1.63399994      -6.06636237E-03
  -1.63199997      -8.98528844E-03
  -1.63000000      -1.15133794E-02
  -1.62800002      -1.27415871E-02
  -1.62600005      -1.16994474E-02
  -1.62399995      -8.01004749E-03
  -1.62199998      -2.36102240E-03
  -1.62000000       3.49483616E-03
  -1.61800003       7.26932380E-03
  -1.61600006       7.03390734E-03
  -1.61399996       2.12153676E-03
  -1.61199999      -6.37285179E-03
  -1.61000001      -1.57781187E-02
  -1.60800004      -2.27227286E-02
  -1.60599995      -2.44098287E-02
  -1.60399997      -1.97757371E-02
  -1.60200000      -1.00255460E-02
  -1.60000002       1.71284564E-03
  -1.59800005       1.15099894E-02
  -1.59599996       1.60882939E-02
  -1.59399998       1.40218353E-02
  -1.59200001       6.20811805E-03
  -1.59000003      -4.56062751E-03
  -1.58800006      -1.47252297E-02
  -1.58599997      -2.13152617E-02
  -1.58399999      -2.29839403E-02
  -1.58200002      -2.03137323E-02
  -1.58000004      -1.53075419E-02
  -1.57799995      -1.03364997E-02
  -1.57599998      -7.04834005E-03
  -1.57400000      -5.76060871E-03
  -1.57200003      -5.60694095E-03
  -1.57000005      -5.30859036E-03
  -1.56799996      -4.10964433E-03
  -1.56599998      -2.32953625E-03
  -1.56400001      -1.19030545E-03
  -1.56200004      -2.02417746E-03
  -1.55999994      -5.31129818E-03
  -1.55799997      -1.01460144E-02
  -1.55599999      -1.44760590E-02
  -1.55400002      -1.60466600E-02
  -1.55200005      -1.35582481E-02
  -1.54999995      -7.43873511E-03
  -1.54799998       2.06217868E-04
  -1.54600000       6.44790847E-03
  -1.54400003       8.79989099E-03
  -1.54200006       6.27911696E-03
  -1.53999996      -2.20177113E-04
  -1.53799999      -8.37779418E-03
  -1.53600001      -1.54889980E-02
  -1.53400004      -1.95740927E-02
  -1.53199995      -2.00582072E-02
  -1.52999997      -1.77518874E-02
  -1.52800000      -1.42470114E-02
  -1.52600002      -1.10847037E-02
  -1.52400005      -9.13282298E-03
  -1.52199996      -8.42660107E-03
  -1.51999998      -8.43685120E-03
  -1.51800001      -8.52887612E-03
  -1.51600003      -8.32063798E-03
  -1.51400006      -7.79368170E-03
  -1.51199996      -7.20824767E-03
  -1.50999999      -6.94293156E-03
  -1.50800002      -7.34718516E-03
  -1.50600004      -8.62861238E-03
  -1.50399995      -1.07130753E-02
  -1.50199997      -1.31159350E-02
  -1.50000000      -1.49695706E-02
  -1.49800003      -1.53237283E-02
  -1.49600005      -1.36541352E-02
  -1.49399996      -1.03357825E-02
  -1.49199998      -6.69066235E-03
  -1.49000001      -4.43525240E-03
  -1.48800004      -4.74520493E-03
  -1.48599994      -7.47619104E-03
  -1.48399997      -1.11027071E-02
  -1.48199999      -1.35195646E-02
  -1.48000002      -1.32939126E-02
  -1.47800004      -1.06110284E-02
  -1.47599995      -7.27956276E-03
  -1.47399998      -5.73252793E-03
  -1.47200000      -7.58529222E-03
  -1.47000003      -1.26177883E-02
  -1.46800005      -1.87640935E-02
  -1.46599996      -2.31354795E-02
  -1.46399999      -2.34739184E-02
  -1.46200001      -1.92737523E-02
  -1.46000004      -1.20193902E-02
  -1.45799994      -4.53660125E-03
  -1.45599997       1.83196273E-04
  -1.45400000       1.24640763E-04
  -1.45200002      -5.03920205E-03
  -1.45000005      -1.38564585E-02
  -1.44799995      -2.35658288E-02
  -1.44599998      -3.09732072E-02
  -1.44400001      -3.34668905E-02
  -1.44200003      -2.99226642E-02
  -1.44000006      -2.11600270E-02
  -1.43799996      -9.74683557E-03
  -1.43599999       8.37945379E-04
  -1.43400002       7.41431257E-03
  -1.43200004       8.22229870E-03
  -1.42999995       3.49867810E-03
  -1.42799997      -4.74523287E-03
  -1.42600000      -1.36251319E-02
  -1.42400002      -2.05372442E-02
  -1.42200005      -2.40728762E-02
  -1.41999996      -2.43198015E-02
  -1.41799998      -2.24555023E-02
  -1.41600001      -1.99416634E-02
  -1.41400003      -1.77152902E-02
  -1.41199994      -1.58794764E-02
  -1.40999997      -1.39793698E-02
  -1.40799999      -1.16808359E-02
  -1.40600002      -9.35914926E-03
  -1.40400004      -8.16718582E-03
  -1.40199995      -9.44714062E-03
  -1.39999998      -1.38256233E-02
  -1.39800000      -2.05329563E-02
  -1.39600003      -2.74558701E-02
  -1.39400005      -3.19825448E-02
  -1.39199996      -3.21983248E-02
  -1.38999999      -2.78007630E-02
  -1.38800001      -2.02255733E-02
  -1.38600004      -1.20168068E-02
  -1.38399994      -5.76720573E-03
  -1.38199997      -3.23339272E-03
  -1.38000000      -4.93136980E-03
  -1.37800002      -1.02424417E-02
  -1.37600005      -1.77262705E-02
  -1.37399995      -2.55182367E-02
  -1.37199998      -3.16546373E-02
  -1.37000000      -3.44678164E-02
  -1.36800003      -3.30305025E-02
  -1.36600006      -2.75640860E-02
  -1.36399996      -1.95521284E-02
  -1.36199999      -1.13556152E-02
  -1.36000001      -5.46879973E-03
  -1.35800004      -3.64722358E-03
  -1.35599995      -6.31127134E-03
  -1.35399997      -1.24576539E-02
  -1.35200000      -2.00714972E-02
  -1.35000002      -2.68488098E-02
  -1.34800005      -3.08907162E-02
  -1.34599996      -3.12574990E-02
  -1.34399998      -2.81691235E-02
  -1.34200001      -2.28781011E-02
  -1.34000003      -1.72223020E-02
  -1.33800006      -1.30196102E-02
  -1.33599997      -1.15277888E-02
  -1.33399999      -1.31108351E-02
  -1.33200002      -1.72565412E-02
  -1.33000004      -2.28216648E-02
  -1.32799995      -2.84176301E-02
  -1.32599998      -3.27033289E-02
  -1.32400000      -3.45961899E-02
  -1.32200003      -3.35081816E-02
  -1.32000005      -2.95517296E-02
  -1.31799996      -2.36929525E-02
  -1.31599998      -1.76231861E-02
  -1.31400001      -1.32116061E-02
  -1.31200004      -1.17551740E-02
  -1.30999994      -1.33701945E-02
  -1.30799997      -1.70267262E-02
  -1.30599999      -2.11409032E-02
  -1.30400002      -2.44685858E-02
  -1.30200005      -2.66849883E-02
  -1.29999995      -2.82389559E-02
  -1.29799998      -2.96307281E-02
  -1.29600000      -3.07093635E-02
  -1.29400003      -3.05402000E-02
  -1.29200006      -2.80340258E-02
  -1.28999996      -2.29706541E-02
  -1.28799999      -1.66067444E-02
  -1.28600001      -1.14203971E-02
  -1.28400004      -9.97909531E-03
  -1.28199995      -1.36091858E-02
  -1.27999997      -2.15809587E-02
  -1.27800000      -3.13161388E-02
  -1.27600002      -3.94465514E-02
  -1.27400005      -4.31943722E-02
  -1.27199996      -4.14218269E-02
  -1.26999998      -3.49610820E-02
  -1.26800001      -2.61883400E-02
  -1.26600003      -1.81157682E-02
  -1.26400006      -1.33819599E-02
  -1.26199996      -1.34294443E-02
  -1.25999999      -1.81388613E-02
  -1.25800002      -2.59115342E-02
  -1.25600004      -3.42913754E-02
  -1.25399995      -4.07772996E-02
  -1.25199997      -4.36520875E-02
  -1.25000000      -4.24362831E-02
  -1.24800003      -3.79433595E-02
  -1.24600005      -3.17951106E-02
  -1.24399996      -2.58217622E-02
  -1.24199998      -2.14401092E-02
  -1.24000001      -1.92697365E-02
  -1.23800004      -1.91204306E-02
  -1.23599994      -2.02271547E-02
  -1.23399997      -2.17819214E-02
  -1.23199999      -2.33516376E-02
  -1.23000002      -2.50909552E-02
  -1.22800004      -2.75320206E-02
  -1.22599995      -3.10496893E-02
  -1.22399998      -3.53194624E-02
  -1.22200000      -3.91213894E-02
  -1.22000003      -4.07492928E-02
  -1.21800005      -3.89723293E-02
  -1.21599996      -3.38537581E-02
  -1.21399999      -2.70553213E-02
  -1.21200001      -2.12146621E-02
  -1.21000004      -1.87729206E-02
  -1.20799994      -2.07833704E-02
  -1.20599997      -2.64553074E-02
  -1.20400000      -3.35741825E-02
  -1.20200002      -3.94779965E-02
  -1.20000005      -4.21895981E-02
  -1.19799995      -4.10295539E-02
  -1.19599998      -3.66611108E-02
  -1.19400001      -3.06552760E-02
  -1.19200003      -2.49549635E-02
  -1.19000006      -2.12977771E-02
  -1.18799996      -2.07734071E-02
  -1.18599999      -2.35095061E-02
  -1.18400002      -2.85846405E-02
  -1.18200004      -3.43080908E-02
  -1.17999995      -3.88268232E-02
  -1.17799997      -4.08333093E-02
  -1.17600000      -4.00890261E-02
  -1.17400002      -3.74253318E-02
  -1.17200005      -3.42572555E-02
  -1.16999996      -3.19012888E-02
  -1.16799998      -3.09519731E-02
  -1.16600001      -3.12058292E-02
  -1.16400003      -3.18953879E-02
  -1.16199994      -3.21251899E-02
  -1.15999997      -3.13809067E-02
  -1.15799999      -2.97383741E-02
  -1.15600002      -2.78685186E-02
  -1.15400004      -2.67558508E-02
  -1.15199995      -2.72772145E-02
  -1.14999998      -2.96970494E-02
  -1.14800000      -3.34216878E-02
  -1.14600003      -3.70903909E-02
  -1.14400005      -3.91915515E-02
  -1.14199996      -3.88127714E-02
  -1.13999999      -3.61453034E-02
  -1.13800001      -3.24526094E-02
  -1.13600004      -2.94584688E-02
  -1.13399994      -2.84529217E-02
  -1.13199997      -2.97388863E-02
  -1.13000000      -3.26090530E-02
  -1.12800002      -3.59103344E-02
  -1.12600005      -3.86830494E-02
  -1.12399995      -4.04825807E-02
  -1.12199998      -4.12512571E-02
  -1.12000000      -4.10292968E-02
  -1.11800003      -3.97251919E-02
  -1.11600006      -3.72519344E-02
  -1.11399996      -3.37894298E-02
  -1.11199999      -3.00233662E-02
  -1.11000001      -2.70245019E-02
  -1.10800004      -2.56718881E-02
  -1.10599995      -2.63003930E-02
  -1.10399997      -2.84898318E-02
  -1.10200000      -3.13128494E-02
  -1.10000002      -3.37826051E-02
  -1.09800005      -3.53069752E-02
  -1.09599996      -3.57659943E-02
  -1.09399998      -3.53674479E-02
  -1.09200001      -3.43733467E-02
  -1.09000003      -3.29531580E-02
  -1.08800006      -3.11772916E-02
  -1.08599997      -2.91601531E-02
  -1.08399999      -2.72635259E-02
  -1.08200002      -2.60916874E-02
  -1.08000004      -2.63120271E-02
  -1.07799995      -2.84284409E-02
  -1.07599998      -3.23188938E-02
  -1.07400000      -3.71354707E-02
  -1.07200003      -4.13879901E-02
  -1.07000005      -4.34711799E-02
  -1.06799996      -4.23357673E-02
  -1.06599998      -3.81313264E-02
  -1.06400001      -3.22360694E-02
  -1.06200004      -2.67900862E-02
  -1.05999994      -2.38296371E-02
  -1.05799997      -2.44187694E-02
  -1.05599999      -2.82430258E-02
  -1.05400002      -3.38024423E-02
  -1.05200005      -3.89830582E-02
  -1.04999995      -4.18125056E-02
  -1.04799998      -4.10994776E-02
  -1.04600000      -3.67083699E-02
  -1.04400003      -2.96356007E-02
  -1.04200006      -2.17656922E-02
  -1.03999996      -1.55182164E-02
  -1.03799999      -1.29487775E-02
  -1.03600001      -1.50007494E-02
  -1.03400004      -2.10017860E-02
  -1.03199995      -2.87755653E-02
  -1.02999997      -3.53906862E-02
  -1.02800000      -3.84391174E-02
  -1.02600002      -3.70021611E-02
  -1.02400005      -3.20882984E-02
  -1.02199996      -2.59596109E-02
  -1.01999998      -2.12135017E-02
  -1.01800001      -1.95986405E-02
  -1.01600003      -2.14964580E-02
  -1.01400006      -2.59712804E-02
  -1.01199996      -3.12561132E-02
  -1.00999999      -3.54827382E-02
  -1.00800002      -3.73030230E-02
  -1.00600004      -3.63105722E-02
  -1.00399995      -3.30679715E-02
  -1.00199997      -2.88410168E-02
  -1.00000000      -2.50403099E-02
 -0.998000026      -2.25859284E-02
 -0.995999992      -2.15266161E-02
 -0.994000018      -2.11448986E-02
 -0.991999984      -2.04878524E-02
 -0.990000010      -1.90287940E-02
 -0.987999976      -1.70904808E-02
 -0.986000001      -1.56575963E-02
 -0.984000027      -1.57966055E-02
 -0.981999993      -1.79530438E-02
 -0.980000019      -2.16222648E-02
 -0.977999985      -2.54237987E-02
 -0.976000011      -2.77176872E-02
 -0.973999977      -2.73587443E-02
 -0.972000003      -2.41314061E-02
 -0.970000029      -1.88274030E-02
 -0.967999995      -1.30907558E-02
 -0.966000021      -8.78964365E-03
 -0.963999987      -7.34869903E-03
 -0.962000012      -9.40178800E-03
 -0.959999979      -1.43278185E-02
 -0.958000004      -2.03956570E-02
 -0.955999970      -2.53223572E-02
 -0.953999996      -2.71907803E-02
 -0.952000022      -2.52558347E-02
 -0.949999988      -2.01682411E-02
 -0.948000014      -1.37385204E-02
 -0.945999980      -8.01863521E-03
 -0.944000006      -4.35535237E-03
 -0.941999972      -3.11065186E-03
 -0.939999998      -3.66686517E-03
 -0.938000023      -5.09136636E-03
 -0.935999990      -6.64568506E-03
 -0.934000015      -8.19389056E-03
 -0.931999981      -9.90138762E-03
 -0.930000007      -1.19734090E-02
 -0.927999973      -1.43515691E-02
 -0.925999999      -1.66167188E-02
 -0.924000025      -1.80189889E-02
 -0.921999991      -1.78456847E-02
 -0.920000017      -1.55209899E-02
 -0.917999983      -1.10757500E-02
 -0.916000009      -5.17031550E-03
 -0.913999975       9.60045727E-04
 -0.912000000       5.81409223E-03
 -0.910000026       8.16539209E-03
 -0.907999992       7.51258573E-03
 -0.906000018       4.34026774E-03
 -0.903999984       8.93475953E-06
 -0.902000010      -3.82547383E-03
 -0.899999976      -5.77950198E-03
 -0.898000002      -5.18932287E-03
 -0.896000028      -2.23798165E-03
 -0.893999994       2.29028007E-03
 -0.892000020       7.35052442E-03
 -0.889999986       1.18788248E-02
 -0.888000011       1.50460359E-02
 -0.885999978       1.62737072E-02
 -0.884000003       1.53562678E-02
 -0.882000029       1.25439800E-02
 -0.879999995       8.50129500E-03
 -0.878000021       4.06304840E-03
 -0.875999987       1.68115948E-04
 -0.874000013      -2.35504471E-03
 -0.871999979      -2.82473653E-03
 -0.870000005      -8.98822909E-04
 -0.867999971       3.44945304E-03
 -0.865999997       9.58820526E-03
 -0.864000022       1.63929183E-02
 -0.861999989       2.23037973E-02
 -0.860000014       2.59482060E-02
 -0.857999980       2.67639235E-02
 -0.856000006       2.50819530E-02
 -0.853999972       2.20940225E-02
 -0.851999998       1.93462819E-02
 -0.850000024       1.78038850E-02
 -0.847999990       1.78733971E-02
 -0.846000016       1.91862322E-02
 -0.843999982       2.12937035E-02
 -0.842000008       2.38424633E-02
 -0.839999974       2.68000104E-02
 -0.838000000       3.00578754E-02
 -0.836000025       3.32083069E-02
 -0.833999991       3.54291350E-02
 -0.832000017       3.59665044E-02
 -0.829999983       3.45585719E-02
 -0.828000009       3.17953490E-02
 -0.825999975       2.89130080E-02
 -0.824000001       2.72591542E-02
 -0.822000027       2.76354328E-02
 -0.819999993       3.00742816E-02
 -0.818000019       3.39174420E-02
 -0.815999985       3.80460098E-02
 -0.814000010       4.15521264E-02
 -0.811999977       4.38849330E-02
 -0.810000002       4.49346565E-02
 -0.808000028       4.48735803E-02
 -0.805999994       4.41053137E-02
 -0.804000020       4.31230515E-02
 -0.801999986       4.25462797E-02
 -0.800000012       4.28863280E-02
 -0.797999978       4.43687811E-02
 -0.796000004       4.67301048E-02
 -0.794000030       4.91849110E-02
 -0.791999996       5.06954975E-02
 -0.790000021       5.05746268E-02
 -0.787999988       4.88740653E-02
 -0.786000013       4.65435423E-02
 -0.783999979       4.52053249E-02
 -0.782000005       4.63518202E-02
 -0.779999971       5.06836437E-02
 -0.777999997       5.75555339E-02
 -0.776000023       6.53465316E-02
 -0.773999989       7.18296170E-02
 -0.772000015       7.52203017E-02
 -0.769999981       7.49182254E-02
 -0.768000007       7.16665834E-02
 -0.765999973       6.71309978E-02
 -0.763999999       6.32021874E-02
 -0.762000024       6.13404736E-02
 -0.759999990       6.20863698E-02
 -0.758000016       6.51400760E-02
 -0.755999982       6.95619807E-02
 -0.754000008       7.42395818E-02
 -0.751999974       7.83032849E-02
 -0.750000000       8.11813325E-02
 -0.748000026       8.24939236E-02
 -0.745999992       8.22588727E-02
 -0.744000018       8.05856958E-02
 -0.741999984       7.79201910E-02
 -0.740000010       7.50868395E-02
 -0.737999976       7.29346871E-02
 -0.736000001       7.24008083E-02
 -0.734000027       7.40633830E-02
 -0.731999993       7.79078677E-02
 -0.730000019       8.32966417E-02
 -0.727999985       8.90915841E-02
 -0.726000011       9.40452367E-02
 -0.723999977       9.71880332E-02
 -0.722000003       9.82870162E-02
 -0.720000029       9.77266133E-02
 -0.717999995       9.63978767E-02
 -0.716000021       9.53237340E-02
 -0.713999987       9.51706022E-02
 -0.712000012       9.60743129E-02
 -0.709999979       9.77221355E-02
 -0.708000004       9.96625200E-02
 -0.705999970      0.101626240    
 -0.703999996      0.103687681    
 -0.702000022      0.105983816    
 -0.699999988      0.108461201    
 -0.698000014      0.110758141    
 -0.695999980      0.112554334    
 -0.694000006      0.113785259    
 -0.691999972      0.114634261    
 -0.689999998      0.115540579    
 -0.688000023      0.116507404    