  -2.40000010       0.00000000    
  -2.39800000       0.00000000    
  -2.39599991       0.00000000    
  -2.39400005       0.00000000    
  -2.39199996       0.00000000    
  -2.39000010       0.00000000    
  -2.38800001      -1.65460007E-10
  -2.38599992      -1.42956935E-09
  -2.38400006      -6.20577545E-09
  -2.38199997      -1.63783120E-08
  -2.38000011      -2.26586963E-08
  -2.37800002       1.05020490E-08
  -2.37599993       1.23087304E-07
  -2.37400007       2.46678781E-07
  -2.37199998       8.77017072E-08
  -2.36999989      -6.44310205E-07
  -2.36800003      -1.43933801E-06
  -2.36599994      -4.63065589E-07
  -2.36400008       3.69538543E-06
  -2.36199999       7.56913369E-06
  -2.35999990       9.14166321E-07
  -2.35800004      -2.32509447E-05
  -2.35599995      -4.65268931E-05
  -2.35400009      -1.57967679E-05
  -2.35200000       1.13210830E-04
  -2.34999990       2.76803592E-04
  -2.34800005       2.41065150E-04
  -2.34599996      -2.66613963E-04
  -2.34400010      -1.18301949E-03
  -2.34200001      -1.75090774E-03
  -2.33999991      -7.03819329E-04
  -2.33800006       2.66671414E-03
  -2.33599997       7.02529401E-03
  -2.33400011       8.46381672E-03
  -2.33200002       2.32003490E-03
  -2.32999992      -1.27514023E-02
  -2.32800007      -3.08018699E-02
  -2.32599998      -3.82086188E-02
  -2.32399988      -1.90822314E-02
  -2.32200003       3.44604999E-02
  -2.31999993      0.110810347    
  -2.31800008      0.171136647    
  -2.31599998      0.151986808    
  -2.31399989      -1.21053159E-02
  -2.31200004     -0.337057769    
  -2.30999994     -0.716801941    
  -2.30800009     -0.877086818    
  -2.30599999     -0.441530585    
  -2.30399990      0.820385933    
  -2.30200005       2.61524534    
  -2.29999995       3.86972713    
  -2.29800010       2.97947216    
  -2.29600000      -1.20537519    
  -2.29399991      -7.94962120    
  -2.29200006      -13.7214365    
  -2.28999996      -13.0360756    
  -2.28800011      -1.61208248    
  -2.28600001       19.2582893    
  -2.28399992       39.9896660    
  -2.28200006       44.8993492    
  -2.27999997       20.4860630    
  -2.27800012      -33.2281876    
  -2.27600002      -95.2612991    
  -2.27399993      -127.585739    
  -2.27200007      -92.9507828    
  -2.26999998       19.6540833    
  -2.26799989       175.984940    
  -2.26600003       299.029968    
  -2.26399994       299.278870    
  -2.26200008       123.589813    
  -2.25999999      -200.490814    
  -2.25799990      -551.612366    
  -2.25600004      -748.437561    
  -2.25399995      -624.815918    
  -2.25200009      -119.179260    
  -2.25000000       660.376099    
  -2.24799991       1430.10840    
  -2.24600005       1801.64368    
  -2.24399996       1423.54688    
  -2.24200010       159.991394    
  -2.24000001      -1753.15466    
  -2.23799992      -3653.85083    
  -2.23600006      -4578.40234    
  -2.23399997      -3600.15381    
  -2.23200011      -324.741821    
  -2.23000002       4639.39746    
  -2.22799993       9510.65039    
  -2.22600007       11720.5566    
  -2.22399998       8923.46191    
  -2.22199988       360.799316    
  -2.22000003      -12030.1553    
  -2.21799994      -23506.7930    
  -2.21600008      -27898.9492    
  -2.21399999      -20304.8164    
  -2.21199989      -114.270508    
  -2.21000004       27184.4688    
  -2.20799994       50813.2852    
  -2.20600009       58526.2305    
  -2.20400000       42297.0117    
  -2.20199990       3364.53613    
  -2.20000005      -46198.5273    
  -2.19799995      -87049.5625    
  -2.19600010      -100521.617    
  -2.19400001      -77644.0469    
  -2.19199991      -24653.8223    
  -2.19000006       38558.5820    
  -2.18799996       87371.9766    
  -2.18600011       104949.641    
  -2.18400002       91832.0391    
  -2.18199992       66545.5234    
  -2.18000007       55184.9141    
  -2.17799997       73909.6484    
  -2.17600012       113222.328    
  -2.17400002       133805.234    
  -2.17199993       79371.8438    
  -2.17000008      -96061.8750    
  -2.16799998      -397114.875    
  -2.16599989      -766625.250    
  -2.16400003      -1087513.62    
  -2.16199994      -1210016.62    
  -2.16000009      -997027.375    
  -2.15799999      -372999.719    
  -2.15599990       639064.000    
  -2.15400004       1902961.75    
  -2.15199995       3179764.50    
  -2.15000010       4160510.50    
  -2.14800000       4516697.00    
  -2.14599991       3965301.25    
  -2.14400005       2344518.25    
  -2.14199996      -309614.656    
  -2.14000010      -3706511.75    
  -2.13800001      -7294288.50    
  -2.13599992      -10331159.0    
  -2.13400006      -12043158.0    
  -2.13199997      -11840767.0    
  -2.13000011      -9529572.00    
  -2.12800002      -5431039.00    
  -2.12599993      -345721.250    
  -2.12400007       4654838.00    
  -2.12199998       8548731.00    
  -2.11999989       10678582.0    
  -2.11800003       10930491.0    
  -2.11599994       9695729.00    
  -2.11400008       7629314.50    
  -2.11199999       5318672.50    
  -2.10999990       3027510.00    
  -2.10800004       651673.750    
  -2.10599995      -2079828.88    
  -2.10400009      -5258448.50    
  -2.10200000      -8498472.00    
  -2.09999990      -10882829.0    
  -2.09800005      -11241202.0    
  -2.09599996      -8680538.00    
  -2.09400010      -3137290.50    
  -2.09200001       4330579.00    
  -2.08999991       11708242.0    
  -2.08800006       16647218.0    
  -2.08599997       17332082.0    
  -2.08400011       13239651.0    
  -2.08200002       5455584.00    
  -2.07999992      -3617854.00    
  -2.07800007      -11078837.0    
  -2.07599998      -14562808.0    
  -2.07399988      -13099841.0    
  -2.07200003      -7464689.00    
  -2.06999993       107289.594    
  -2.06800008       6723431.50    
  -2.06599998       9857995.00    
  -2.06399989       8237597.50    
  -2.06200004       2295461.25    
  -2.05999994      -5943419.00    
  -2.05800009      -13505270.0    
  -2.05599999      -17445924.0    
  -2.05399990      -15877290.0    
  -2.05200005      -8726468.00    
  -2.04999995       2043588.75    
  -2.04800010       12899974.0    
  -2.04600000       19842946.0    
  -2.04399991       19859468.0    
  -2.04200006       12239762.0    
  -2.03999996      -792523.250    
  -2.03800011      -14529790.0    
  -2.03600001      -23331022.0    
  -2.03399992      -22819064.0    
  -2.03200006      -11893397.0    
  -2.02999997       6346345.00    
  -2.02800012       25339384.0    
  -2.02600002       37382792.0    
  -2.02399993       36725488.0    
  -2.02200007       22177948.0    
  -2.01999998      -1953833.00    
  -2.01799989      -27178528.0    
  -2.01600003      -43996936.0    
  -2.01399994      -45712272.0    
  -2.01200008      -31277840.0    
  -2.00999999      -5920965.00    
  -2.00799990       20801572.0    
  -2.00600004       38758620.0    
  -2.00399995       41259196.0    
  -2.00200009       27656288.0    
  -2.00000000       3481921.75    
  -1.99800003      -21881136.0    
  -1.99600005      -38953348.0    
  -1.99399996      -41756296.0    
  -1.99199998      -29831734.0    
  -1.99000001      -8010283.00    
  -1.98800004       15773312.0    
  -1.98599994       33573232.0    
  -1.98399997       40160616.0    
  -1.98199999       34436324.0    
  -1.98000002       19233928.0    
  -1.97800004      -127667.750    
  -1.97599995      -17805968.0    
  -1.97399998      -29172660.0    
  -1.97200000      -31866728.0    
  -1.97000003      -26058354.0    
  -1.96800005      -14074958.0    
  -1.96599996       373355.750    
  -1.96399999       13166920.0    
  -1.96200001       20796610.0    
  -1.96000004       21273438.0    
  -1.95799994       14717671.0    
  -1.95599997       3400986.00    
  -1.95400000      -8885068.00    
  -1.95200002      -18033726.0    
  -1.95000005      -21032072.0    
  -1.94799995      -17045166.0    
  -1.94599998      -7708570.50    
  -1.94400001       3539522.00    
  -1.94200003       12842777.0    
  -1.94000006       17452676.0    
  -1.93799996       16743062.0    
  -1.93599999       12285797.0    
  -1.93400002       6986779.00    
  -1.93200004       3704521.00    
  -1.92999995       3986877.50    
  -1.92799997       7474117.00    
  -1.92600000       12180385.0    
  -1.92400002       15459756.0    
  -1.92200005       15181045.0    
  -1.91999996       10596906.0    
  -1.91799998       2585933.00    
  -1.91600001      -6748895.00    
  -1.91400003      -14880594.0    
  -1.91199994      -19703722.0    
  -1.90999997      -20130464.0    
  -1.90799999      -16301874.0    
  -1.90600002      -9442862.00    
  -1.90400004      -1484002.25    
  -1.90199995       5417586.50    
  -1.89999998       9362556.00    
  -1.89800000       9141169.00    
  -1.89600003       4557886.00    
  -1.89400005      -3425835.00    
  -1.89199996      -12814494.0    
  -1.88999999      -21012056.0    
  -1.88800001      -25515196.0    
  -1.88600004      -24693668.0    
  -1.88399994      -18398836.0    
  -1.88199997      -8146878.00    
  -1.88000000       3255740.50    
  -1.87800002       12573170.0    
  -1.87600005       17211340.0    
  -1.87399995       16109958.0    
  -1.87199998       10108470.0    
  -1.87000000       1629027.75    
  -1.86800003      -6213406.00    
  -1.86600006      -10737020.0    
  -1.86399996      -10625965.0    
  -1.86199999      -6323928.50    
  -1.86000001       239686.125    
  -1.85800004       6456942.00    
  -1.85599995       10051702.0    
  -1.85399997       9902013.00    
  -1.85200000       6377570.00    
  -1.85000002       1094493.25    
  -1.84800005      -3781841.50    
  -1.84599996      -6389658.50    
  -1.84399998      -5841406.50    
  -1.84200001      -2467873.75    
  -1.84000003       2418557.00    
  -1.83800006       7099575.50    
  -1.83599997       10098600.0    
  -1.83399999       10643279.0    
  -1.83200002       8804375.00    
  -1.83000004       5335109.50    
  -1.82799995       1347990.50    
  -1.82599998      -2020322.12    
  -1.82400000      -3874583.00    
  -1.82200003      -3757236.00    
  -1.82000005      -1799226.25    
  -1.81799996       1201398.38    
  -1.81599998       3869817.00    
  -1.81400001       4613889.50    
  -1.81200004       2239843.75    
  -1.80999994      -3373038.25    
  -1.80799997      -10878775.0    
  -1.80599999      -17665156.0    
  -1.80400002      -20730440.0    
  -1.80200005      -17968850.0    
  -1.79999995      -9313124.00    
  -1.79799998       2858142.00    
  -1.79600000       14371998.0    
  -1.79400003       20822312.0    
  -1.79200006       19426572.0    
  -1.78999996       10353422.0    
  -1.78799999      -3134963.50    
  -1.78600001      -15882352.0    
  -1.78400004      -22931600.0    
  -1.78199995      -21620704.0    
  -1.77999997      -12746106.0    
  -1.77800000      -242282.500    
  -1.77600002       10514621.0    
  -1.77400005       15039956.0    
  -1.77199996       11668407.0    
  -1.76999998       2212980.75    
  -1.76800001      -8923465.00    
  -1.76600003      -16750680.0    
  -1.76400006      -17873346.0    
  -1.76199996      -11871972.0    
  -1.75999999      -1313316.50    
  -1.75800002       9523805.00    
  -1.75600004       16550488.0    
  -1.75399995       17520340.0    
  -1.75199997       12750544.0    
  -1.75000000       4712731.00    
  -1.74800003      -3201935.50    
  -1.74600005      -8132460.50    
  -1.74399996      -8801686.00    
  -1.74199998      -5808407.00    
  -1.74000001      -1144382.62    
  -1.73800004       2779575.00    
  -1.73599994       4168453.00    
  -1.73399997       2530279.50    
  -1.73199999      -1222226.12    
  -1.73000002      -5261896.50    
  -1.72800004      -7699520.50    
  -1.72599995      -7433274.50    
  -1.72399998      -4627983.00    
  -1.72200000      -614964.562    
  -1.72000003       2742958.75    
  -1.71800005       3932311.25    
  -1.71599996       2505521.50    
  -1.71399999      -711365.125    
  -1.71200001      -4026182.00    
  -1.71000004      -5719730.00    
  -1.70799994      -4917138.00    
  -1.70599997      -2064542.50    
  -1.70400000       1240709.00    
  -1.70200002       3009619.00    
  -1.70000005       1863509.25    
  -1.69799995      -2207769.25    
  -1.69599998      -7723483.00    
  -1.69400001      -12327652.0    
  -1.69200003      -13882396.0    
  -1.69000006      -11522075.0    
  -1.68799996      -6141816.00    
  -1.68599999      -44116.2500    
  -1.68400002       4121857.50    
  -1.68200004       4630168.50    
  -1.67999995       1535376.88    
  -1.67799997      -3327440.75    
  -1.67600000      -7219921.00    
  -1.67400002      -7849047.00    
  -1.67200005      -4529907.50    
  -1.66999996       1403211.25    
  -1.66799998       7152114.50    
  -1.66600001       9724754.00    
  -1.66400003       7332050.00    
  -1.66199994       269725.688    
  -1.65999997      -9114386.00    
  -1.65799999      -17355160.0    
  -1.65600002      -21282300.0    
  -1.65400004      -19301014.0    
  -1.65199995      -11995250.0    
  -1.64999998      -1833174.50    
  -1.64800000       7861865.00    
  -1.64600003       14198674.0    
  -1.64400005       15718115.0    
  -1.64199996       12722501.0    
  -1.63999999       6882922.00    
  -1.63800001       388290.875    
  -1.63600004      -4934681.50    
  -1.63399994      -8151578.00    
  -1.63199997      -9245410.00    
  -1.63000000      -8745744.00    
  -1.62800002      -7247765.00    
  -1.62600005      -5108660.00    
  -1.62399995      -2464432.50    
  -1.62199998       500522.250    
  -1.62000000       3260165.50    
  -1.61800003       4870920.50    
  -1.61600006       4243587.50    
  -1.61399996       690664.125    
  -1.61199999      -5518750.00    
  -1.61000001      -12915993.0    
  -1.60800004      -19123910.0    
  -1.60599995      -21662368.0    
  -1.60399997      -18975946.0    
  -1.60200000      -11230584.0    
  -1.60000002      -468154.625    
  -1.59800005       10017598.0    
  -1.59599996       16872374.0    
  -1.59399998       17940646.0    
  -1.59200001       13052024.0    
  -1.59000003       3999067.00    
  -1.58800006      -6246465.00    
  -1.58599997      -14700417.0    
  -1.58399999      -19395004.0    
  -1.58200002      -19862726.0    
  -1.58000004      -16961272.0    
  -1.57799995      -12238066.0    
  -1.57599998      -7195728.00    
  -1.57400000      -2806106.75    
  -1.57200003       569157.250    
  -1.57000005       2919812.25    
  -1.56799996       4221056.00    
  -1.56599998       4219172.00    
  -1.56400001       2518100.50    
  -1.56200004      -1081657.25    
  -1.55999994      -6190317.50    
  -1.55799997      -11665721.0    
  -1.55599999      -15839697.0    
  -1.55400002      -17120308.0    
  -1.55200005      -14701634.0    
  -1.54999995      -9036688.00    
  -1.54799998      -1793075.25    
  -1.54600000       4735830.00    
  -1.54400003       8515250.00    
  -1.54200006       8542692.00    
  -1.53999996       5152842.50    
  -1.53799999      -251138.188    
  -1.53600001      -5874321.50    
  -1.53400004      -10256547.0    
  -1.53199995      -12719345.0    
  -1.52999997      -13374610.0    
  -1.52800000      -12789201.0    
  -1.52600002      -11536854.0    
  -1.52400005      -9886524.00    
  -1.52199996      -7776299.50    
  -1.51999998      -5036172.50    
  -1.51800001      -1719779.75    
  -1.51600003       1651977.50    
  -1.51400006       4101394.00    
  -1.51199996       4496467.50    
  -1.50999999       2053171.75    
  -1.50800002      -3170179.00    
  -1.50600004      -10050906.0    
  -1.50399995      -16607002.0    
  -1.50199997      -20636488.0    
  -1.50000000      -20565044.0    
  -1.49800003      -16157351.0    
  -1.49600005      -8739421.00    
  -1.49399996      -801772.500    
  -1.49199998       4902258.50    
  -1.49000001       6412391.00    
  -1.48800004       3332877.75    
  -1.48599994      -2998618.50    
  -1.48399997      -10037562.0    
  -1.48199999      -15055590.0    
  -1.48000002      -16246285.0    
  -1.47800004      -13470206.0    
  -1.47599995      -8306930.50    
  -1.47399998      -3368716.50    
  -1.47200000      -1129689.50    
  -1.47000003      -2784533.75    
  -1.46800005      -7641138.00    
  -1.46599996      -13377345.0    
  -1.46399999      -17076490.0    
  -1.46200001      -16604932.0    
  -1.46000004      -11663654.0    
  -1.45799994      -4040894.50    
  -1.45599997       3107228.50    
  -1.45400000       6610919.50    
  -1.45200002       4680057.00    
  -1.45000005      -2300304.00    
  -1.44799995      -11894781.0    
  -1.44599998      -20598108.0    
  -1.44400001      -25230906.0    
  -1.44200003      -24162878.0    
  -1.44000006      -17897098.0    
  -1.43799996      -8793086.00    
  -1.43599999      -89403.5000    
  -1.43400002       5362785.00    
  -1.43200004       6147547.00    
  -1.42999995       2693886.50    
  -1.42799997      -3100689.00    
  -1.42600000      -8832114.00    
  -1.42400002      -12668105.0    
  -1.42200005      -14061372.0    
  -1.41999996      -13766268.0    
  -1.41799998      -13203921.0    
  -1.41600001      -13539849.0    
  -1.41400003      -14955716.0    
  -1.41199994      -16521082.0    
  -1.40999997      -16719017.0    
  -1.40799999      -14339718.0    
  -1.40600002      -9294928.00    
  -1.40400004      -2917320.75    
  -1.40199995       2451365.50    
  -1.39999998       4388246.00    
  -1.39800000       1483436.88    
  -1.39600003      -5911886.00    
  -1.39400005      -15622584.0    
  -1.39199996      -24349888.0    
  -1.38999999      -28894690.0    
  -1.38800001      -27413454.0    
  -1.38600004      -20207720.0    
  -1.38399994      -9677146.00    
  -1.38199997       538236.000    
  -1.38000000       6908911.50    
  -1.37800002       7281831.00    
  -1.37600005       1600394.12    
  -1.37399995      -8193442.00    
  -1.37199998      -18950638.0    
  -1.37000000      -27438840.0    
  -1.36800003      -31358522.0    
  -1.36600006      -29933664.0    
  -1.36399996      -23967220.0    
  -1.36199999      -15448182.0    
  -1.36000001      -6889194.50    
  -1.35800004      -617458.000    
  -1.35599995       1825176.50    
  -1.35399997       55073.0000    
  -1.35200000      -5113760.00    
  -1.35000002      -11946764.0    
  -1.34800005      -18312652.0    
  -1.34599996      -22335816.0    
  -1.34399998      -22951270.0    
  -1.34200001      -20207250.0    
  -1.34000003      -15206854.0    
  -1.33800006      -9732323.00    
  -1.33599997      -5655685.00    
  -1.33399999      -4310240.50    
  -1.33200002      -6060893.50    
  -1.33000004      -10193121.0    
  -1.32799995      -15216395.0    
  -1.32599998      -19416226.0    
  -1.32400000      -21515982.0    
  -1.32200003      -21121292.0    
  -1.32000005      -18775714.0    
  -1.31799996      -15631223.0    
  -1.31599998      -12875492.0    
  -1.31400001      -11218878.0    
  -1.31200004      -10687453.0    
  -1.30999994      -10793245.0    
  -1.30799997      -10985756.0    
  -1.30599999      -11071150.0    
  -1.30400002      -11361775.0    
  -1.30200005      -12479834.0    
  -1.29999995      -14878442.0    
  -1.29799998      -18377586.0    
  -1.29600000      -22004002.0    
  -1.29400003      -24264706.0    
  -1.29200006      -23809780.0    
  -1.28999996      -20183572.0    
  -1.28799999      -14258032.0    
  -1.28600001      -8108162.50    
  -1.28400004      -4253157.50    
  -1.28199995      -4574652.00    
  -1.27999997      -9383822.00    
  -1.27800000      -17138906.0    
  -1.27600002      -24957144.0    
  -1.27400005      -29764190.0    
  -1.27199996      -29594792.0    
  -1.26999998      -24421820.0    
  -1.26800001      -16188663.0    
  -1.26600003      -7986533.00    
  -1.26400006      -2842530.00    
  -1.26199996      -2553012.50    
  -1.25999999      -7110973.50    
  -1.25800002      -14807131.0    
  -1.25600004      -22998814.0    
  -1.25399995      -29071232.0    
  -1.25199997      -31355710.0    
  -1.25000000      -29588748.0    
  -1.24800003      -24891896.0    
  -1.24600005      -19218940.0    
  -1.24399996      -14601380.0    
  -1.24199998      -12393706.0    
  -1.24000001      -12825470.0    
  -1.23800004      -15055607.0    
  -1.23599994      -17621906.0    
  -1.23399997      -19168684.0    
  -1.23199999      -19051998.0    
  -1.23000002      -17618974.0    
  -1.22800004      -15960946.0    
  -1.22599995      -15362184.0    
  -1.22399998      -16603079.0    
  -1.22200000      -19523134.0    
  -1.22000003      -23021106.0    
  -1.21800005      -25548532.0    
  -1.21599996      -25816268.0    
  -1.21399999      -23472716.0    
  -1.21200001      -19341738.0    
  -1.21000004      -15107520.0    
  -1.20799994      -12563132.0    
  -1.20599997      -12787894.0    
  -1.20400000      -15626823.0    
  -1.20200002      -19743174.0    
  -1.20000005      -23275248.0    
  -1.19799995      -24720504.0    
  -1.19599998      -23643470.0    
  -1.19400001      -20784354.0    
  -1.19200003      -17612156.0    
  -1.19000006      -15541250.0    
  -1.18799996      -15298162.0    
  -1.18599999      -16655647.0    
  -1.18400002      -18691484.0    
  -1.18200004      -20362972.0    
  -1.17999995      -21046384.0    
  -1.17799997      -20794986.0    
  -1.17600000      -20238346.0    
  -1.17400002      -20185678.0    
  -1.17200005      -21203112.0    
  -1.16999996      -23319896.0    
  -1.16799998      -25919156.0    
  -1.16600001      -27991120.0    
  -1.16400003      -28514948.0    
  -1.16199994      -26874484.0    
  -1.15999997      -23188452.0    
  -1.15799999      -18342584.0    
  -1.15600002      -13747070.0    
  -1.15400004      -10874225.0    
  -1.15199995      -10742125.0    
  -1.14999998      -13524126.0    
  -1.14800000      -18460434.0    
  -1.14600003      -24058944.0    
  -1.14400005      -28564206.0    
  -1.14199996      -30515140.0    
  -1.13999999      -29205362.0    
  -1.13800001      -24982854.0    
  -1.13600004      -19177992.0    
  -1.13399994      -13711075.0    
  -1.13199997      -10478696.0    
  -1.13000000      -10667698.0    
  -1.12800002      -14326730.0    
  -1.12600005      -20359862.0    
  -1.12399995      -26929166.0    
  -1.12199998      -32082292.0    
  -1.12000000      -34421884.0    
  -1.11800003      -33411326.0    
  -1.11600006      -29466712.0    
  -1.11399996      -23680872.0    
  -1.11199999      -17547396.0    
  -1.11000001      -12581626.0    
  -1.10800004      -10027778.0    
  -1.10599995      -10548658.0    
  -1.10399997      -13983234.0    
  -1.10200000      -19310912.0    
  -1.10000002      -24949448.0    
  -1.09800005      -29246382.0    
  -1.09599996      -31052734.0    
  -1.09399998      -30131060.0    
  -1.09200001      -27077368.0    
  -1.09000003      -23012046.0    
  -1.08800006      -19023032.0    
  -1.08599997      -15814286.0    
  -1.08399999      -13675614.0    
  -1.08200002      -12659572.0    
  -1.08000004      -12798294.0    
  -1.07799995      -14216994.0    
  -1.07599998      -16951154.0    
  -1.07400000      -20755876.0    
  -1.07200003      -24900026.0    
  -1.07000005      -28260990.0    
  -1.06799996      -29628230.0    
  -1.06599998      -28246226.0    
  -1.06400001      -24180760.0    
  -1.06200004      -18555716.0    
  -1.05999994      -13253436.0    
  -1.05799997      -10312050.0    
  -1.05599999      -11085901.0    
  -1.05400002      -15611099.0    
  -1.05200005      -22370766.0    
  -1.04999995      -28825794.0    
  -1.04799998      -32361376.0    
  -1.04600000      -31419008.0    
  -1.04400003      -26125624.0    
  -1.04200006      -18314608.0    
  -1.03999996      -10781160.0    
  -1.03799999      -6100636.50    
  -1.03600001      -5712495.00    
  -1.03400004      -9449291.00    
  -1.03199995      -15646735.0    
  -1.02999997      -21903210.0    
  -1.02800000      -25953842.0    
  -1.02600002      -26489044.0    
  -1.02400005      -23599632.0    
  -1.02199996      -18653926.0    
  -1.01999998      -13870323.0    
  -1.01800001      -11331812.0    
  -1.01600003      -12159978.0    
  -1.01400006      -16011927.0    
  -1.01199996      -21142860.0    
  -1.00999999      -25210126.0    
  -1.00800002      -26301384.0    
  -1.00600004      -23864654.0    
  -1.00399995      -18835104.0    
  -1.00199997      -13268294.0    
  -1.00000000      -9309469.00    
 -0.998000026      -8247319.50    
 -0.995999992      -10030754.0    
 -0.994000018      -13369636.0    
 -0.991999984      -16480375.0    
 -0.990000010      -17831784.0    
 -0.987999976      -16833796.0    
 -0.986000001      -14030974.0    
 -0.984000027      -10793824.0    
 -0.981999993      -8685002.00    
 -0.980000019      -8778128.00    
 -0.977999985      -11136629.0    
 -0.976000011      -14741749.0    
 -0.973999977      -17962028.0    
 -0.972000003      -19303976.0    
 -0.970000029      -18069130.0    
 -0.967999995      -14747473.0    
 -0.966000021      -10652658.0    
 -0.963999987      -7374195.50    
 -0.962000012      -6026238.50    
 -0.959999979      -6907411.00    
 -0.958000004      -9380478.00    
 -0.955999970      -12325211.0    
 -0.953999996      -14611567.0    
 -0.952000022      -15473222.0    
 -0.949999988      -14648123.0    
 -0.948000014      -12420674.0    
 -0.945999980      -9420637.00    
 -0.944000006      -6322701.00    
 -0.941999972      -3716921.00    
 -0.939999998      -1867291.00    
 -0.938000023      -735094.125    
 -0.935999990      -121083.625    
 -0.934000015       65857.2500    
 -0.931999981      -424966.250    
 -0.930000007      -2002462.00    
 -0.927999973      -4956896.00    
 -0.925999999      -9028752.00    
 -0.924000025      -13237928.0    
 -0.921999991      -16145504.0    
 -0.920000017      -16374777.0    
 -0.917999983      -13286797.0    
 -0.916000009      -7409151.00    
 -0.913999975      -279030.938    
 -0.912000000       6037382.00    
 -0.910000026       9778551.00    
 -0.907999992       9916185.00    
 -0.906000018       6572690.50    
 -0.903999984       919232.750    
 -0.902000010      -5272650.00    
 -0.899999976      -10030478.0    
 -0.898000002      -11857310.0    
 -0.896000028      -10113898.0    
 -0.893999994      -5207798.00    
 -0.892000020       1537121.00    
 -0.889999986       8368960.50    
 -0.888000011       13641831.0    
 -0.885999978       16277834.0    
 -0.884000003       15977267.0    
 -0.882000029       13135341.0    
 -0.879999995       8583504.00    
 -0.878000021       3335874.25    
 -0.875999987      -1499467.88    
 -0.874000013      -4868258.00    
 -0.871999979      -5908689.00    
 -0.870000005      -4216849.00    
 -0.867999971      -23395.0000    
 -0.865999997       5785072.50    
 -0.864000022       11913463.0    
 -0.861999989       17034858.0    
 -0.860000014       20196288.0    
 -0.857999980       21047992.0    
 -0.856000006       19798340.0    
 -0.853999972       17070100.0    
 -0.851999998       13832956.0    
 -0.850000024       10916018.0    
 -0.847999990       9078212.00    
 -0.846000016       8622666.00    
 -0.843999982       9530618.00    
 -0.842000008       11375442.0    
 -0.839999974       13708829.0    
 -0.838000000       16138196.0    
 -0.836000025       18528666.0    
 -0.833999991       20734132.0    
 -0.832000017       22441234.0    
 -0.829999983       23245474.0    
 -0.828000009       22653762.0    
 -0.825999975       20674560.0    
 -0.824000001       17950156.0    
 -0.822000027       15691700.0    
 -0.819999993       15139436.0    
 -0.818000019       16930732.0    
 -0.815999985       20673026.0    
 -0.814000010       25205868.0    
 -0.811999977       29026280.0    
 -0.810000002       31129944.0    
 -0.808000028       31337936.0    
 -0.805999994       30362564.0    
 -0.804000020       29187202.0    
 -0.801999986       28722706.0    
 -0.800000012       29353074.0    
 -0.797999978       30804170.0    
 -0.796000004       32398040.0    
 -0.794000030       33287354.0    
 -0.791999996       32844456.0    
 -0.790000021       30972454.0    
 -0.787999988       28294012.0    
 -0.786000013       25967968.0    
 -0.783999979       25371096.0    
 -0.782000005       27371016.0    
 -0.779999971       31928466.0    
 -0.777999997       37925056.0    
 -0.776000023       43672900.0    
 -0.773999989       47520156.0    
 -0.772000015       48456960.0    
 -0.769999981       46569884.0    
 -0.768000007       42795836.0    
 -0.765999973       38575328.0    
 -0.763999999       35375308.0    
 -0.762000024       34262136.0    
 -0.759999990       35672056.0    
 -0.758000016       39318032.0    
 -0.755999982       44235628.0    
 -0.754000008       49131400.0    
 -0.751999974       52666140.0    
 -0.750000000       54121888.0    
 -0.748000026       53492988.0    
 -0.745999992       51562504.0    
 -0.744000018       49300800.0    
 -0.741999984       47572336.0    
 -0.740000010       46755220.0    
 -0.737999976       46828200.0    
 -0.736000001       47741760.0    
 -0.734000027       49539692.0    
 -0.731999993       52319632.0    
 -0.730000019       55904204.0    
 -0.727999985       59615568.0    
 -0.726000011       62479692.0    
 -0.723999977       63582504.0    
 -0.722000003       62653856.0    
 -0.720000029       60275660.0    
 -0.717999995       57664476.0    
 -0.716000021       56102936.0    
 -0.713999987       56341816.0    
 -0.712000012       58407516.0    
 -0.709999979       61663696.0    
 -0.708000004       65117856.0    
 -0.705999970       67889936.0    
 -0.703999996       69375496.0    
 -0.702000022       69393256.0    
 -0.699999988       68233208.0    
 -0.698000014       66509976.0    
 -0.695999980       65208496.0    
 -0.694000006       65171408.0    
 -0.691999972       66776812.0    
 -0.689999998       69779784.0    
 -0.688000023       73269024.0    