  -2.40000010       0.00000000    
  -2.39800000       0.00000000    
  -2.39599991       0.00000000    
  -2.39400005       0.00000000    
  -2.39199996       0.00000000    
  -2.39000010       0.00000000    
  -2.38800001      -4.03284761E-27
  -2.38599992       9.10075459E-10
  -2.38400006       4.84866014E-09
  -2.38199997       7.74952369E-09
  -2.38000011      -6.12755224E-09
  -2.37800002      -2.62135949E-08
  -2.37599993       3.59471635E-08
  -2.37400007       1.89576980E-07
  -2.37199998      -6.85850878E-08
  -2.36999989      -1.58203693E-06
  -2.36800003      -3.37859319E-06
  -2.36599994       3.67978146E-08
  -2.36400008       1.50476681E-05
  -2.36199999       3.34389624E-05
  -2.35999990       1.81287869E-05
  -2.35800004      -7.34813802E-05
  -2.35599995      -2.08528014E-04
  -2.35400009      -2.06243116E-04
  -2.35200000       1.70585772E-04
  -2.34999990       8.78960884E-04
  -2.34800005       1.25534623E-03
  -2.34599996       2.38499197E-04
  -2.34400010      -2.49140733E-03
  -2.34200001      -5.12703694E-03
  -2.33999991      -3.88923567E-03
  -2.33800006       3.85535345E-03
  -2.33599997       1.48598934E-02
  -2.33400011       1.84876174E-02
  -2.33200002       3.35269189E-03
  -2.32999992      -2.92794853E-02
  -2.32800007      -5.63962311E-02
  -2.32599998      -4.28703912E-02
  -2.32399988       2.74932161E-02
  -2.32200003      0.120069414    
  -2.31999993      0.152259767    
  -2.31800008       5.07179350E-02
  -2.31599998     -0.165255710    
  -2.31399989     -0.347703576    
  -2.31200004     -0.296771944    
  -2.30999994       6.64384812E-02
  -2.30800009      0.555840433    
  -2.30599999      0.765454292    
  -2.30399990      0.354930818    
  -2.30200005     -0.586027980    
  -2.29999995      -1.41084838    
  -2.29800010      -1.26489401    
  -2.29600000      0.192630053    
  -2.29399991       2.19595695    
  -2.29200006       3.03150439    
  -2.28999996       1.18166506    
  -2.28800011      -3.09235096    
  -2.28600001      -6.94996166    
  -2.28399992      -6.12501955    
  -2.28200006       1.88038564    
  -2.27999997       14.2288647    
  -2.27800012       21.8018570    
  -2.27600002       13.4184723    
  -2.27399993      -15.1649971    
  -2.27200007      -52.3389893    
  -2.26999998      -69.8549118    
  -2.26799989      -36.4609184    
  -2.26600003       56.2302856    
  -2.26399994       170.091034    
  -2.26200008       221.239426    
  -2.25999999       120.836609    
  -2.25799990      -152.820511    
  -2.25600004      -491.887787    
  -2.25399995      -664.440796    
  -2.25200009      -424.676270    
  -2.25000000       299.546570    
  -2.24799991       1247.22900    
  -2.24600005       1833.92078    
  -2.24399996       1414.49585    
  -2.24200010      -268.617706    
  -2.24000001      -2693.48535    
  -2.23799992      -4539.10596    
  -2.23600006      -4228.61914    
  -2.23399997      -905.913391    
  -2.23200011       4646.54102    
  -2.23000002       9805.46094    
  -2.22799993       11051.6055    
  -2.22600007       5888.17188    
  -2.22399998      -5151.18164    
  -2.22199988      -17666.0254    
  -2.22000003      -24671.6094    
  -2.21799994      -19923.1387    
  -2.21600008      -1907.21179    
  -2.21399999       23707.8145    
  -2.21199989       45088.3008    
  -2.21000004       49113.3125    
  -2.20799994       28334.9707    
  -2.20600009      -13423.8174    
  -2.20400000      -60318.3008    
  -2.20199990      -90078.3438    
  -2.20000005      -84184.1719    
  -2.19799995      -37955.2148    
  -2.19600010       34873.6367    
  -2.19400001       106313.359    
  -2.19199991       145880.844    
  -2.19000006       134517.109    
  -2.18799996       73516.3281    
  -2.18600011      -16448.3203    
  -2.18400002      -105806.273    
  -2.18199992      -170155.281    
  -2.18000007      -199612.609    
  -2.17799997      -197764.844    
  -2.17600012      -171058.859    
  -2.17400002      -116224.938    
  -2.17199993      -15938.8867    
  -2.17000008       150927.875    
  -2.16799998       387021.500    
  -2.16599989       653863.875    
  -2.16400003       864221.688    
  -2.16199994       899944.562    
  -2.16000009       653757.750    
  -2.15799999       80334.1875    
  -2.15599990      -765292.188    
  -2.15400004      -1720847.25    
  -2.15199995      -2547972.00    
  -2.15000010      -2992239.75    
  -2.14800000      -2851666.25    
  -2.14599991      -2031817.50    
  -2.14400005      -573362.125    
  -2.14199996       1350378.38    
  -2.14000010       3459600.00    
  -2.13800001       5409768.50    
  -2.13599992       6844348.00    
  -2.13400006       7457033.50    
  -2.13199997       7059346.50    
  -2.13000011       5640436.50    
  -2.12800002       3396508.00    
  -2.12599993       706989.250    
  -2.12400007      -1950652.88    
  -2.12199998      -4128691.50    
  -2.11999989      -5534691.00    
  -2.11800003      -6101342.00    
  -2.11599994      -5966026.00    
  -2.11400008      -5367143.00    
  -2.11199999      -4508894.50    
  -2.10999990      -3467911.00    
  -2.10800004      -2197553.00    
  -2.10599995      -633045.000    
  -2.10400009       1161214.50    
  -2.10200000       2896168.75    
  -2.09999990       4092658.50    
  -2.09800005       4258922.00    
  -2.09599996       3140576.50    
  -2.09400010       916412.875    
  -2.09200001      -1779452.75    
  -2.08999991      -4054044.25    
  -2.08800006      -5106484.50    
  -2.08599997      -4581198.50    
  -2.08400011      -2752534.50    
  -2.08200002      -437096.750    
  -2.07999992       1345453.50    
  -2.07800007       1820584.75    
  -2.07599998       815200.750    
  -2.07399988      -1142509.50    
  -2.07200003      -3029464.00    
  -2.06999993      -3751981.25    
  -2.06800008      -2604494.50    
  -2.06599998       429846.188    
  -2.06399989       4652329.00    
  -2.06200004       8890200.00    
  -2.05999994       11894933.0    
  -2.05800009       12739732.0    
  -2.05599999       11083345.0    
  -2.05399990       7237860.50    
  -2.05200005       2053446.75    
  -2.04999995      -3319582.25    
  -2.04800010      -7719321.00    
  -2.04600000      -10249526.0    
  -2.04399991      -10495188.0    
  -2.04200006      -8629918.00    
  -2.03999996      -5374671.50    
  -2.03800011      -1792138.75    
  -2.03600001       1046931.25    
  -2.03399992       2426107.50    
  -2.03200006       2235461.75    
  -2.02999997       992962.125    
  -2.02800012      -400351.625    
  -2.02600002      -1084977.00    
  -2.02399993      -661155.500    
  -2.02200007       604103.500    
  -2.01999998       1901245.50    
  -2.01799989       2296077.50    
  -2.01600003       1249174.12    
  -2.01399994      -1024821.06    
  -2.01200008      -3559053.50    
  -2.00999999      -5028678.00    
  -2.00799990      -4370489.00    
  -2.00600004      -1335848.50    
  -2.00399995       3298928.00    
  -2.00200009       7984766.00    
  -2.00000000       11014847.0    
  -1.99800003       11227777.0    
  -1.99600005       8482528.00    
  -1.99399996       3698869.00    
  -1.99199998      -1538390.00    
  -1.99000001      -5617311.50    
  -1.98800004      -7491706.00    
  -1.98599994      -6987818.50    
  -1.98399997      -4734372.00    
  -1.98199999      -1799059.12    
  -1.98000002       773147.188    
  -1.97800004       2316596.75    
  -1.97599995       2676938.50    
  -1.97399998       2119449.00    
  -1.97200000       1109422.00    
  -1.97000003       89822.6875    
  -1.96800005      -653915.625    
  -1.96599996      -1020803.50    
  -1.96399999      -1051410.75    
  -1.96200001      -874231.750    
  -1.96000004      -678482.188    
  -1.95799994      -707366.250    
  -1.95599997      -1233471.88    
  -1.95400000      -2479924.50    
  -1.95200002      -4488840.50    
  -1.95000005      -6989119.50    
  -1.94799995      -9345652.00    
  -1.94599998      -10656022.0    
  -1.94400001      -10000476.0    
  -1.94200003      -6773865.00    
  -1.94000006      -975016.500    
  -1.93799996       6669574.50    
  -1.93599999       14814290.0    
  -1.93400002       21814490.0    
  -1.93200004       26159888.0    
  -1.92999995       26884612.0    
  -1.92799997       23827646.0    
  -1.92600000       17666706.0    
  -1.92400002       9715977.00    
  -1.92200005       1547919.25    
  -1.91999996      -5446446.50    
  -1.91799998      -10418516.0    
  -1.91600001      -13222238.0    
  -1.91400003      -14318032.0    
  -1.91199994      -14463543.0    
  -1.90999997      -14325684.0    
  -1.90799999      -14185414.0    
  -1.90600002      -13864730.0    
  -1.90400004      -12896562.0    
  -1.90199995      -10840486.0    
  -1.89999998      -7579660.50    
  -1.89800000      -3454465.00    
  -1.89600003       821472.000    
  -1.89400005       4408821.00    
  -1.89199996       6632915.00    
  -1.88999999       7196853.00    
  -1.88800001       6250794.50    
  -1.88600004       4317781.50    
  -1.88399994       2122177.50    
  -1.88199997       381377.250    
  -1.88000000      -383423.188    
  -1.87800002       27596.0625    
  -1.87600005       1463301.50    
  -1.87399995       3496555.25    
  -1.87199998       5578534.00    
  -1.87000000       7213688.50    
  -1.86800003       8085835.00    
  -1.86600006       8090729.50    
  -1.86399996       7280342.00    
  -1.86199999       5770133.00    
  -1.86000001       3671951.25    
  -1.85800004       1087274.38    
  -1.85599995      -1851014.88    
  -1.85399997      -4931541.50    
  -1.85200000      -7852607.00    
  -1.85000002      -10257082.0    
  -1.84800005      -11795019.0    
  -1.84599996      -12184991.0    
  -1.84399998      -11257579.0    
  -1.84200001      -8981209.00    
  -1.84000003      -5477082.50    
  -1.83800006      -1022179.56    
  -1.83599997       3967200.50    
  -1.83399999       8974623.00    
  -1.83200002       13435533.0    
  -1.83000004       16785538.0    
  -1.82799995       18502334.0    
  -1.82599998       18161924.0    
  -1.82400000       15538603.0    
  -1.82200003       10749701.0    
  -1.82000005       4388149.50    
  -1.81799996      -2458968.50    
  -1.81599998      -8393648.00    
  -1.81400001      -12090897.0    
  -1.81200004      -12760798.0    
  -1.80999994      -10484686.0    
  -1.80799997      -6244124.00    
  -1.80599999      -1591539.62    
  -1.80400002       1916731.00    
  -1.80200005       3284650.50    
  -1.79999995       2399348.25    
  -1.79799998      -8781.40625    
  -1.79600000      -2720509.50    
  -1.79400003      -4521080.00    
  -1.79200006      -4624384.50    
  -1.78999996      -2884199.75    
  -1.78799999       242000.562    
  -1.78600001       3913115.50    
  -1.78400004       7199175.00    
  -1.78199995       9344213.00    
  -1.77999997       9928224.00    
  -1.77800000       8904622.00    
  -1.77600002       6531759.50    
  -1.77400005       3246308.75    
  -1.77199996      -460550.938    
  -1.76999998      -4117276.00    
  -1.76800001      -7283335.00    
  -1.76600003      -9528276.00    
  -1.76400006      -10432343.0    
  -1.76199996      -9652054.00    
  -1.75999999      -7048016.00    
  -1.75800002      -2818185.75    
  -1.75600004       2444327.50    
  -1.75399995       7828586.50    
  -1.75199997       12316336.0    
  -1.75000000       15054823.0    
  -1.74800003       15588266.0    
  -1.74600005       13961381.0    
  -1.74399996       10665678.0    
  -1.74199998       6464035.00    
  -1.74000001       2168651.00    
  -1.73800004      -1551632.00    
  -1.73599994      -4286405.00    
  -1.73399997      -5908507.00    
  -1.73199999      -6524314.50    
  -1.73000002      -6377652.50    
  -1.72800004      -5740915.00    
  -1.72599995      -4825949.00    
  -1.72399998      -3741534.50    
  -1.72200000      -2508407.50    
  -1.72000003      -1116926.00    
  -1.71800005       406293.188    
  -1.71599996       1963724.75    
  -1.71399999       3403879.50    
  -1.71200001       4575566.50    
  -1.71000004       5380286.00    
  -1.70799994       5784790.00    
  -1.70599997       5787181.00    
  -1.70400000       5369040.50    
  -1.70200002       4482010.00    
  -1.70000005       3097956.75    
  -1.69799995       1302920.75    
  -1.69599998      -626014.250    
  -1.69400001      -2228331.25    
  -1.69200003      -2977422.75    
  -1.69000006      -2472418.50    
  -1.68799996      -622148.000    
  -1.68599999       2263906.50    
  -1.68400002       5522558.00    
  -1.68200004       8308162.50    
  -1.67999995       9829697.00    
  -1.67799997       9579016.00    
  -1.67600000       7486814.00    
  -1.67400002       3964002.75    
  -1.67200005      -189212.125    
  -1.66999996      -3992729.50    
  -1.66799998      -6567342.00    
  -1.66600001      -7401845.50    
  -1.66400003      -6507721.50    
  -1.66199994      -4387919.50    
  -1.65999997      -1819571.12    
  -1.65799999       466108.875    
  -1.65600002       2065888.00    
  -1.65400004       3020986.75    
  -1.65199995       3717008.50    
  -1.64999998       4623265.50    
  -1.64800000       6005569.00    
  -1.64600003       7753304.00    
  -1.64400005       9400380.00    
  -1.64199996       10322542.0    
  -1.63999999       10011609.0    
  -1.63800001       8302075.50    
  -1.63600004       5455710.00    
  -1.63399994       2081214.50    
  -1.63199997      -1065361.00    
  -1.63000000      -3312050.00    
  -1.62800002      -4247278.00    
  -1.62600005      -3789820.25    
  -1.62399995      -2151550.50    
  -1.62199998       262798.250    
  -1.62000000       2967742.00    
  -1.61800003       5479747.50    
  -1.61600006       7367385.00    
  -1.61399996       8293504.50    
  -1.61199999       8071864.00    
  -1.61000001       6741362.50    
  -1.60800004       4620605.00    
  -1.60599995       2291455.50    
  -1.60399997       476341.562    
  -1.60200000      -177700.688    
  -1.60000002       660125.562    
  -1.59800005       2835373.75    
  -1.59599996       5691899.00    
  -1.59399998       8239291.00    
  -1.59200001       9458835.00    
  -1.59000003       8653947.00    
  -1.58800006       5721771.50    
  -1.58599997       1248176.50    
  -1.58399999      -3622090.25    
  -1.58200002      -7511255.50    
  -1.58000004      -9231006.00    
  -1.57799995      -8163403.50    
  -1.57599998      -4465471.00    
  -1.57400000       976782.000    
  -1.57200003       6828922.00    
  -1.57000005       11721253.0    
  -1.56799996       14646225.0    
  -1.56599998       15208247.0    
  -1.56400001       13658843.0    
  -1.56200004       10733317.0    
  -1.55999994       7370063.00    
  -1.55799997       4415600.00    
  -1.55599999       2407247.50    
  -1.55400002       1485867.25    
  -1.55200005       1443191.00    
  -1.54999995       1871492.50    
  -1.54799998       2353847.75    
  -1.54600000       2624100.00    
  -1.54400003       2641162.50    
  -1.54200006       2556761.00    
  -1.53999996       2606452.25    
  -1.53799999       2977897.00    
  -1.53600001       3726666.50    
  -1.53400004       4763147.50    
  -1.53199995       5908947.50    
  -1.52999997       6972019.00    
  -1.52800000       7804263.50    
  -1.52600002       8317160.00    
  -1.52400005       8471186.00    
  -1.52199996       8264347.00    
  -1.51999998       7732087.00    
  -1.51800001       6956035.50    
  -1.51600003       6061015.00    
  -1.51400006       5193485.50    
  -1.51199996       4482543.50    
  -1.50999999       4009283.75    
  -1.50800002       3799228.00    
  -1.50600004       3840144.00    
  -1.50399995       4106361.00    
  -1.50199997       4572070.00    
  -1.50000000       5204764.50    
  -1.49800003       5951283.00    
  -1.49600005       6729813.50    
  -1.49399996       7445236.50    
  -1.49199998       8015821.50    
  -1.49000001       8396320.00    
  -1.48800004       8577809.00    
  -1.48599994       8567248.00    
  -1.48399997       8361447.00    
  -1.48199999       7944711.50    
  -1.48000002       7313661.00    
  -1.47800004       6520320.50    
  -1.47599995       5700269.50    
  -1.47399998       5055495.00    
  -1.47200000       4789895.00    
  -1.47000003       5017149.00    
  -1.46800005       5695965.00    
  -1.46599996       6628017.00    
  -1.46399999       7530369.00    
  -1.46200001       8159185.50    
  -1.46000004       8410129.00    
  -1.45799994       8356032.50    
  -1.45599997       8195874.00    
  -1.45400000       8144830.50    
  -1.45200002       8329977.00    
  -1.45000005       8745585.00    
  -1.44799995       9280212.00    
  -1.44599998       9800286.00    
  -1.44400001       10222036.0    
  -1.44200003       10536342.0    
  -1.44000006       10766510.0    
  -1.43799996       10899896.0    
  -1.43599999       10836677.0    
  -1.43400002       10402198.0    
  -1.43200004       9421749.00    
  -1.42999995       7835042.00    
  -1.42799997       5787204.00    
  -1.42600000       3656251.25    
  -1.42400002       1986703.25    
  -1.42200005       1344037.75    
  -1.41999996       2139588.25    
  -1.41799998       4474641.50    
  -1.41600001       8069018.50    
  -1.41400003       12298578.0    
  -1.41199994       16339537.0    
  -1.40999997       19375174.0    
  -1.40799999       20803578.0    
  -1.40600002       20386656.0    
  -1.40400004       18294522.0    
  -1.40199995       15051790.0    
  -1.39999998       11393959.0    
  -1.39800000       8097206.50    
  -1.39600003       5807486.50    
  -1.39400005       4911776.50    
  -1.39199996       5480412.50    
  -1.38999999       7267310.50    
  -1.38800001       9780218.00    
  -1.38600004       12385384.0    
  -1.38399994       14441515.0    
  -1.38199997       15438732.0    
  -1.38000000       15119766.0    
  -1.37800002       13565367.0    
  -1.37600005       11208956.0    
  -1.37399995       8753540.00    
  -1.37199998       6993928.50    
  -1.37000000       6572876.00    
  -1.36800003       7757811.00    
  -1.36600006       10313444.0    
  -1.36399996       13553425.0    
  -1.36199999       16549572.0    
  -1.36000001       18446732.0    
  -1.35800004       18756922.0    
  -1.35599995       17519292.0    
  -1.35399997       15271134.0    
  -1.35200000       12850626.0    
  -1.35000002       11103834.0    
  -1.34800005       10611445.0    
  -1.34599996       11512907.0    
  -1.34399998       13480058.0    
  -1.34200001       15841396.0    
  -1.34000003       17797620.0    
  -1.33800006       18666512.0    
  -1.33599997       18088676.0    
  -1.33399999       16133430.0    
  -1.33200002       13291162.0    
  -1.33000004       10341306.0    
  -1.32799995       8148939.50    
  -1.32599998       7427741.00    
  -1.32400000       8533354.00    
  -1.32200003       11338394.0    
  -1.32000005       15239751.0    
  -1.31799996       19314182.0    
  -1.31599998       22582958.0    
  -1.31400001       24308652.0    
  -1.31200004       24217530.0    
  -1.30999994       22557026.0    
  -1.30799997       19968994.0    
  -1.30599999       17247614.0    
  -1.30400002       15074091.0    
  -1.30200005       13850452.0    
  -1.29999995       13660570.0    
  -1.29799998       14326349.0    
  -1.29600000       15515993.0    
  -1.29400003       16811442.0    
  -1.29200006       17798288.0    
  -1.28999996       18146784.0    
  -1.28799999       17721912.0    
  -1.28600001       16668968.0    
  -1.28400004       15416843.0    
  -1.28199995       14550892.0    
  -1.27999997       14579440.0    
  -1.27800000       15708356.0    
  -1.27600002       17724976.0    
  -1.27400005       20073788.0    
  -1.27199996       22071616.0    
  -1.26999998       23197684.0    
  -1.26800001       23274108.0    
  -1.26600003       22495176.0    
  -1.26400006       21318332.0    
  -1.26199996       20250382.0    
  -1.25999999       19668000.0    
  -1.25800002       19700254.0    
  -1.25600004       20219714.0    
  -1.25399995       20917926.0    
  -1.25199997       21432758.0    
  -1.25000000       21483314.0    
  -1.24800003       20969842.0    
  -1.24600005       20021584.0    
  -1.24399996       18960888.0    
  -1.24199998       18216214.0    
  -1.24000001       18204768.0    
  -1.23800004       19182336.0    
  -1.23599994       21142166.0    
  -1.23399997       23767226.0    
  -1.23199999       26454404.0    
  -1.23000002       28462176.0    
  -1.22800004       29129476.0    
  -1.22599995       28125364.0    
  -1.22399998       25596816.0    
  -1.22200000       22189156.0    
  -1.22000003       18855742.0    
  -1.21800005       16554908.0    
  -1.21599996       15946230.0    
  -1.21399999       17168136.0    
  -1.21200001       19828620.0    
  -1.21000004       23139810.0    
  -1.20799994       26174724.0    
  -1.20599997       28109614.0    
  -1.20400000       28453508.0    
  -1.20200002       27170328.0    
  -1.20000005       24700514.0    
  -1.19799995       21870610.0    
  -1.19599998       19662712.0    
  -1.19400001       18908872.0    
  -1.19200003       20012544.0    
  -1.19000006       22794344.0    
  -1.18799996       26546306.0    
  -1.18599999       30258124.0    
  -1.18400002       32973370.0    
  -1.18200004       34074368.0    
  -1.17999995       33445620.0    
  -1.17799997       31449702.0    
  -1.17600000       28781052.0    
  -1.17400002       26200672.0    
  -1.17200005       24337772.0    
  -1.16999996       23520184.0    
  -1.16799998       23729984.0    
  -1.16600001       24674588.0    
  -1.16400003       25930756.0    
  -1.16199994       27106002.0    
  -1.15999997       27950358.0    
  -1.15799999       28381860.0    
  -1.15600002       28433612.0    
  -1.15400004       28193630.0    
  -1.15199995       27759410.0    
  -1.14999998       27236486.0    
  -1.14800000       26781474.0    
  -1.14600003       26572032.0    
  -1.14400005       26777328.0    
  -1.14199996       27456396.0    
  -1.13999999       28531292.0    
  -1.13800001       29785000.0    
  -1.13600004       30923134.0    
  -1.13399994       31655332.0    
  -1.13199997       31768466.0    
  -1.13000000       31171868.0    
  -1.12800002       29936298.0    
  -1.12600005       28306784.0    
  -1.12399995       26725688.0    
  -1.12199998       25744576.0    
  -1.12000000       25861860.0    
  -1.11800003       27309472.0    
  -1.11600006       29886160.0    
  -1.11399996       32984916.0    
  -1.11199999       35747172.0    
  -1.11000001       37397852.0    
  -1.10800004       37505852.0    
  -1.10599995       36106124.0    
  -1.10399997       33649804.0    
  -1.10200000       30842092.0    
  -1.10000002       28383080.0    
  -1.09800005       26815212.0    
  -1.09599996       26408432.0    
  -1.09399998       27129180.0    
  -1.09200001       28698132.0    
  -1.09000003       30659204.0    
  -1.08800006       32555174.0    
  -1.08599997       34017936.0    
  -1.08399999       34869672.0    
  -1.08200002       35100740.0    
  -1.08000004       34831716.0    
  -1.07799995       34210932.0    
  -1.07599998       33369840.0    
  -1.07400000       32416324.0    
  -1.07200003       31455022.0    
  -1.07000005       30632634.0    
  -1.06799996       30116928.0    
  -1.06599998       30062962.0    
  -1.06400001       30545928.0    
  -1.06200004       31515436.0    
  -1.05999994       32758492.0    
  -1.05799997       33937392.0    
  -1.05599999       34666984.0    
  -1.05400002       34659052.0    
  -1.05200005       33867260.0    
  -1.04999995       32584124.0    
  -1.04799998       31398696.0    
  -1.04600000       30997004.0    
  -1.04400003       31854376.0    
  -1.04200006       33988444.0    
  -1.03999996       36858424.0    
  -1.03799999       39552212.0    
  -1.03600001       41131184.0    
  -1.03400004       40966224.0    
  -1.03199995       38982244.0    
  -1.02999997       35655560.0    
  -1.02800000       31836338.0    
  -1.02600002       28467208.0    
  -1.02400005       26346492.0    
  -1.02199996       25902752.0    
  -1.01999998       27140484.0    
  -1.01800001       29628816.0    
  -1.01600003       32624726.0    
  -1.01400006       35332472.0    
  -1.01199996       37124200.0    
  -1.00999999       37746324.0    
  -1.00800002       37360116.0    
  -1.00600004       36418472.0    
  -1.00399995       35443896.0    
  -1.00199997       34833584.0    
  -1.00000000       34704132.0    
 -0.998000026       34928924.0    
 -0.995999992       35226944.0    
 -0.994000018       35309992.0    
 -0.991999984       35004112.0    
 -0.990000010       34306076.0    
 -0.987999976       33355368.0    
 -0.986000001       32404194.0    
 -0.984000027       31693494.0    
 -0.981999993       31337856.0    
 -0.980000019       31255402.0    
 -0.977999985       31234050.0    
 -0.976000011       31055532.0    
 -0.973999977       30630038.0    
 -0.972000003       30104568.0    
 -0.970000029       29801500.0    
 -0.967999995       29996688.0    
 -0.966000021       30793826.0    
 -0.963999987       32032988.0    
 -0.962000012       33382686.0    
 -0.959999979       34465004.0    
 -0.958000004       35025660.0    
 -0.955999970       34990632.0    
 -0.953999996       34448760.0    
 -0.952000022       33591228.0    
 -0.949999988       32638060.0    
 -0.948000014       31803692.0    
 -0.945999980       31274602.0    
 -0.944000006       31075476.0    
 -0.941999972       31081998.0    
 -0.939999998       31052352.0    
 -0.938000023       30709408.0    
 -0.935999990       29939694.0    
 -0.934000015       28884596.0    
 -0.931999981       27865012.0    
 -0.930000007       27279490.0    
 -0.927999973       27375328.0    
 -0.925999999       28129622.0    
 -0.924000025       29266566.0    
 -0.921999991       30361902.0    
 -0.920000017       31035700.0    
 -0.917999983       31056438.0    
 -0.916000009       30386996.0    
 -0.913999975       29186644.0    
 -0.912000000       27728068.0    
 -0.910000026       26356520.0    
 -0.907999992       25361094.0    
 -0.906000018       24949770.0    
 -0.903999984       25154164.0    
 -0.902000010       25871128.0    
 -0.899999976       26894728.0    
 -0.898000002       28005968.0    
 -0.896000028       28982468.0    
 -0.893999994       29635956.0    
 -0.892000020       29762806.0    
 -0.889999986       29198794.0    
 -0.888000011       27861366.0    
 -0.885999978       25868998.0    
 -0.884000003       23573844.0    
 -0.882000029       21440882.0    
 -0.879999995       19874580.0    
 -0.878000021       19103486.0    
 -0.875999987       19045648.0    
 -0.874000013       19444096.0    
 -0.871999979       19953574.0    
 -0.870000005       20286300.0    
 -0.867999971       20270942.0    
 -0.865999997       19878236.0    
 -0.864000022       19174624.0    
 -0.861999989       18370340.0    
 -0.860000014       17765416.0    
 -0.857999980       17678780.0    
 -0.856000006       18277408.0    
 -0.853999972       19509596.0    
 -0.851999998       21002804.0    
 -0.850000024       22198122.0    
 -0.847999990       22558946.0    
 -0.846000016       21809506.0    
 -0.843999982       19969492.0    
 -0.842000008       17395876.0    
 -0.839999974       14581298.0    
 -0.838000000       12044534.0    
 -0.836000025       10212855.0    
 -0.833999991       9292689.00    
 -0.832000017       9303573.00    
 -0.829999983       9999569.00    
 -0.828000009       10966398.0    
 -0.825999975       11707666.0    
 -0.824000001       11819140.0    
 -0.822000027       11140028.0    
 -0.819999993       9802230.00    
 -0.818000019       8237772.00    
 -0.815999985       6909761.00    
 -0.814000010       6257769.50    
 -0.811999977       6466255.00    
 -0.810000002       7455627.00    
 -0.808000028       8944249.00    
 -0.805999994       10467974.0    
 -0.804000020       11515666.0    
 -0.801999986       11575010.0    
 -0.800000012       10339955.0    
 -0.797999978       7820444.00    
 -0.796000004       4378810.00    
 -0.794000030       624237.500    
 -0.791999996      -2760005.00    
 -0.790000021      -5204523.50    
 -0.787999988      -6419239.00    
 -0.786000013      -6431238.50    
 -0.783999979      -5540657.00    
 -0.782000005      -4150404.00    
 -0.779999971      -2798315.00    
 -0.777999997      -1947662.75    
 -0.776000023      -1860130.75    
 -0.773999989      -2640089.75    
 -0.772000015      -4068534.75    
 -0.769999981      -5715867.50    
 -0.768000007      -7095754.50    
 -0.765999973      -7869851.50    
 -0.763999999      -7974212.00    
 -0.762000024      -7650195.00    
 -0.759999990      -7314577.50    
 -0.758000016      -7424590.00    
 -0.755999982      -8265138.00    
 -0.754000008      -9906451.00    
 -0.751999974      -12197463.0    
 -0.750000000      -14744092.0    
 -0.748000026      -17076290.0    
 -0.745999992      -18725066.0    
 -0.744000018      -19422586.0    
 -0.741999984      -19127064.0    
 -0.740000010      -18135342.0    
 -0.737999976      -16992288.0    
 -0.736000001      -16328689.0    
 -0.734000027      -16634323.0    
 -0.731999993      -18073476.0    
 -0.730000019      -20455640.0    
 -0.727999985      -23247776.0    
 -0.726000011      -25843168.0    
 -0.723999977      -27649384.0    
 -0.722000003      -28350722.0    
 -0.720000029      -27992370.0    
 -0.717999995      -26925320.0    
 -0.716000021      -25770530.0    
 -0.713999987      -25200730.0    
 -0.712000012      -25737946.0    
 -0.709999979      -27540560.0    
 -0.708000004      -30398370.0    
 -0.705999970      -33832128.0    
 -0.703999996      -37225548.0    
 -0.702000022      -40032744.0    
 -0.699999988      -41881704.0    
 -0.698000014      -42626692.0    
 -0.695999980      -42353652.0    
 -0.694000006      -41321320.0    
 -0.691999972      -39999784.0    
 -0.689999998      -38864812.0    
 -0.688000023      -38353748.0    