  -2.40000010       0.00000000    
  -2.39800000       0.00000000    
  -2.39599991       0.00000000    
  -2.39400005       0.00000000    
  -2.39199996       0.00000000    
  -2.39000010       0.00000000    
  -2.38800001      -9.61310897E-22
  -2.38599992      -1.18754112E-20
  -2.38400006      -7.71379461E-20
  -2.38199997      -3.38317284E-19
  -2.38000011      -1.07146400E-18
  -2.37800002      -2.44026821E-18
  -2.37599993      -3.64410490E-18
  -2.37400007      -2.00562906E-18
  -2.37199998       5.45735883E-18
  -2.36999989       1.51731510E-17
  -2.36800003       9.33652737E-18
  -2.36599994      -3.36645635E-17
  -2.36400008      -9.04898731E-17
  -2.36199999      -3.19010144E-17
  -2.35999990       3.33177657E-16
  -2.35800004       9.64933793E-16
  -2.35599995       1.13160161E-15
  -2.35400009      -6.39294941E-16
  -2.35200000      -5.29786582E-15
  -2.34999990      -1.05506424E-14
  -2.34800005      -8.79420014E-15
  -2.34599996       9.84398737E-15
  -2.34400010       4.60939372E-14
  -2.34200001       7.63453157E-14
  -2.33999991       5.01093443E-14
  -2.33800006      -7.92616163E-14
  -2.33599997      -2.88695175E-13
  -2.33400011      -4.25953787E-13
  -2.33200002      -2.38356264E-13
  -2.32999992       4.45577440E-13
  -2.32800007       1.42936054E-12
  -2.32599998       1.97465677E-12
  -2.32399988       1.04558235E-12
  -2.32200003      -1.89271624E-12
  -2.31999993      -5.85208357E-12
  -2.31800008      -7.92653530E-12
  -2.31599998      -4.45097301E-12
  -2.31399989       6.15136631E-12
  -2.31200004       2.02212223E-11
  -2.30999994       2.81128870E-11
  -2.30800009       1.82485260E-11
  -2.30599999      -1.42880811E-11
  -2.30399990      -5.90278174E-11
  -2.30200005      -8.85208434E-11
  -2.29999995      -6.94972899E-11
  -2.29800010       1.47515871E-11
  -2.29600000       1.41978734E-10
  -2.29399991       2.45481857E-10
  -2.29200006       2.37965092E-10
  -2.28999996       6.17541018E-11
  -2.28800011      -2.57201566E-10
  -2.28600001      -5.85598292E-10
  -2.28399992      -7.16747772E-10
  -2.28200006      -4.64231015E-10
  -2.27999997       2.16415913E-10
  -2.27800012       1.13502641E-09
  -2.27600002       1.86406468E-09
  -2.27399993       1.86474258E-09
  -2.27200007       7.36159966E-10
  -2.26999998      -1.47937296E-09
  -2.26799989      -4.06774348E-09
  -2.26600003      -5.66918246E-09
  -2.26399994      -4.71333061E-09
  -2.26200008      -2.71208417E-10
  -2.25999999       6.94407287E-09
  -2.25799990       1.40023273E-08
  -2.25600004       1.62978573E-08
  -2.25399995       9.57862412E-09
  -2.25200009      -6.99581459E-09
  -2.25000000      -2.82751333E-08
  -2.24799991      -4.31245759E-08
  -2.24600005      -3.85288992E-08
  -2.24399996      -7.24884330E-09
  -2.24200010       4.43376074E-08
  -2.24000001       9.35024076E-08
  -2.23799992       1.07992847E-07
  -2.23600006       6.24663343E-08
  -2.23399997      -4.19543760E-08
  -2.23200011      -1.66573813E-07
  -2.23000002      -2.43468321E-07
  -2.22799993      -2.06053016E-07
  -2.22600007      -3.11705506E-08
  -2.22399998       2.29709443E-07
  -2.22199988       4.54066480E-07
  -2.22000003       4.97065798E-07
  -2.21799994       2.70889558E-07
  -2.21600008      -1.84011085E-07
  -2.21399999      -6.81909682E-07
  -2.21199989      -9.56053782E-07
  -2.21000004      -7.89450723E-07
  -2.20799994      -1.52843441E-07
  -2.20600009       7.29907129E-07
  -2.20400000       1.44588012E-06
  -2.20199990       1.58019270E-06
  -2.20000005       9.45170711E-07
  -2.19799995      -2.72198406E-07
  -2.19600010      -1.54605755E-06
  -2.19400001      -2.24440623E-06
  -2.19199991      -1.95891062E-06
  -2.19000006      -7.56701354E-07
  -2.18799996       8.04735748E-07
  -2.18600011       1.94364497E-06
  -2.18400002       2.08397660E-06
  -2.18199992       1.21488119E-06
  -2.18000007      -4.88139520E-08
  -2.17799997      -7.87636736E-07
  -2.17600012      -3.42397755E-07
  -2.17400002       1.18626485E-06
  -2.17199993       2.82412429E-06
  -2.17000008       3.13493410E-06
  -2.16799998       1.00500097E-06
  -2.16599989      -3.59489786E-06
  -2.16400003      -9.30915576E-06
  -2.16199994      -1.37906445E-05
  -2.16000009      -1.46572920E-05
  -2.15799999      -1.05610416E-05
  -2.15599990      -1.83135921E-06
  -2.15400004       9.63050206E-06
  -2.15199995       2.11244405E-05
  -2.15000010       3.01462496E-05
  -2.14800000       3.50607479E-05
  -2.14599991       3.51475828E-05
  -2.14400005       3.01468226E-05
  -2.14199996       1.97816698E-05
  -2.14000010       3.75732361E-06
  -2.13800001      -1.76180147E-05
  -2.13599992      -4.25637663E-05
  -2.13400006      -6.74177063E-05
  -2.13199997      -8.72679520E-05
  -2.13000011      -9.76194351E-05
  -2.12800002      -9.63586426E-05
  -2.12599993      -8.48870259E-05
  -2.12400007      -6.75725314E-05
  -2.12199998      -4.95670574E-05
  -2.11999989      -3.40837905E-05
  -2.11800003      -2.07621233E-05
  -2.11599994      -6.33044147E-06
  -2.11400008       1.24984153E-05
  -2.11199999       3.54345284E-05
  -2.10999990       5.66216368E-05
  -2.10800004       6.60026708E-05
  -2.10599995       5.40376604E-05
  -2.10400009       1.76863068E-05
  -2.10200000      -3.56368000E-05
  -2.09999990      -8.88822833E-05
  -2.09800005      -1.21469711E-04
  -2.09599996      -1.18307391E-04
  -2.09400010      -7.74154905E-05
  -2.09200001      -1.20446084E-05
  -2.08999991       5.43423448E-05
  -2.08800006       9.82603669E-05
  -2.08599997       1.06766733E-04
  -2.08400011       8.31368598E-05
  -2.08200002       4.46922386E-05
  -2.07999992       1.37869474E-05
  -2.07800007       6.50826041E-06
  -2.07599998       2.48513934E-05
  -2.07399988       5.62923960E-05
  -2.07200003       8.07674078E-05
  -2.06999993       8.11932405E-05
  -2.06800008       5.19401256E-05
  -2.06599998       1.00464058E-06
  -2.06399989      -5.47847339E-05
  -2.06200004      -9.84212238E-05
  -2.05999994      -1.20285855E-04
  -2.05800009      -1.20738980E-04
  -2.05599999      -1.07059859E-04
  -2.05399990      -8.74261823E-05
  -2.05200005      -6.61210142E-05
  -2.04999995      -4.29365537E-05
  -2.04800010      -1.66593218E-05
  -2.04600000       1.04056162E-05
  -2.04399991       3.07546470E-05
  -2.04200006       3.48651520E-05
  -2.03999996       1.77975908E-05
  -2.03800011      -1.50339392E-05
  -2.03600001      -4.74086628E-05
  -2.03399992      -5.88695439E-05
  -2.03200006      -3.57055360E-05
  -2.02999997       1.95452303E-05
  -2.02800012       8.60364962E-05
  -2.02600002       1.32438552E-04
  -2.02399993       1.31701425E-04
  -2.02200007       7.55491783E-05
  -2.01999998      -1.90937935E-05
  -2.01799989      -1.15860516E-04
  -2.01600003      -1.74823959E-04
  -2.01399994      -1.71035688E-04
  -2.01200008      -1.06572639E-04
  -2.00999999      -9.99745680E-06
  -2.00799990       7.66112571E-05
  -2.00600004       1.16718453E-04
  -2.00399995       9.52471455E-05
  -2.00200009       2.39442888E-05
  -2.00000000      -6.57286510E-05
  -1.99800003      -1.37944415E-04
  -1.99600005      -1.68200975E-04
  -1.99399996      -1.52012202E-04
  -1.99199998      -1.03425366E-04
  -1.99000001      -4.55296577E-05
  -1.98800004       1.23931204E-06
  -1.98599994       2.69672273E-05
  -1.98399997       3.31939627E-05
  -1.98199999       2.79526139E-05
  -1.98000002       1.89400162E-05
  -1.97800004       9.16549288E-06
  -1.97599995      -2.77879099E-06
  -1.97399998      -1.88664253E-05
  -1.97200000      -3.74554584E-05
  -1.97000003      -5.20410904E-05
  -1.96800005      -5.41614972E-05
  -1.96599996      -3.88963017E-05
  -1.96399999      -9.56283657E-06
  -1.96200001       2.16022345E-05
  -1.96000004       3.78910117E-05
  -1.95799994       2.59649096E-05
  -1.95599997      -1.67024573E-05
  -1.95400000      -7.87121535E-05
  -1.95200002      -1.38003757E-04
  -1.95000005      -1.70537431E-04
  -1.94799995      -1.60759068E-04
  -1.94599998      -1.09155102E-04
  -1.94400001      -3.32922209E-05
  -1.94200003       3.84855703E-05
  -1.94000006       7.82886491E-05
  -1.93799996       7.01652025E-05
  -1.93599999       1.69069826E-05
  -1.93400002      -6.08394439E-05
  -1.93200004      -1.32888526E-04
  -1.92999995      -1.71768625E-04
  -1.92799997      -1.63699238E-04
  -1.92600000      -1.13659989E-04
  -1.92400002      -4.25690305E-05
  -1.92200005       2.18928562E-05
  -1.91999996       5.65230039E-05
  -1.91799998       5.09186975E-05
  -1.91600001       9.56312215E-06
  -1.91400003      -5.24824754E-05
  -1.91199994      -1.17405390E-04
  -1.90999997      -1.71746637E-04
  -1.90799999      -2.09485821E-04
  -1.90600002      -2.30435428E-04
  -1.90400004      -2.36044580E-04
  -1.90199995      -2.26020595E-04
  -1.89999998      -1.98284120E-04
  -1.89800000      -1.52268898E-04
  -1.89600003      -9.30383903E-05
  -1.89400005      -3.27705784E-05
  -1.89199996       1.24481394E-05
  -1.88999999       2.96156031E-05
  -1.88800001       1.59439678E-05
  -1.88600004      -1.82552758E-05
  -1.88399994      -5.33648745E-05
  -1.88199997      -6.96791394E-05
  -1.88000000      -5.74565602E-05
  -1.87800002      -2.22814815E-05
  -1.87600005       1.75818677E-05
  -1.87399995       4.08729065E-05
  -1.87199998       3.50772061E-05
  -1.87000000       3.83645238E-06
  -1.86800003      -3.42565036E-05
  -1.86600006      -5.51825215E-05
  -1.86399996      -4.24816099E-05
  -1.86199999       3.17750164E-06
  -1.86000001       6.30401773E-05
  -1.85800004       1.08626598E-04
  -1.85599995       1.15241128E-04
  -1.85399997       7.38180679E-05
  -1.85200000      -4.75714387E-06
  -1.85000002      -9.47681983E-05
  -1.84800005      -1.67384511E-04
  -1.84599996      -2.03054384E-04
  -1.84399998      -1.98746202E-04
  -1.84200001      -1.67186139E-04
  -1.84000003      -1.29344509E-04
  -1.83800006      -1.04463812E-04
  -1.83599997      -1.02488833E-04
  -1.83399999      -1.21876205E-04
  -1.83200002      -1.52724446E-04
  -1.83000004      -1.82686126E-04
  -1.82799995      -2.02363983E-04
  -1.82599998      -2.07926743E-04
  -1.82400000      -2.00611059E-04
  -1.82200003      -1.84403965E-04
  -1.82000005      -1.63716060E-04
  -1.81799996      -1.42237637E-04
  -1.81599998      -1.23038160E-04
  -1.81400001      -1.09111628E-04
  -1.81200004      -1.03449762E-04
  -1.80999994      -1.08268767E-04
  -1.80799997      -1.23757127E-04
  -1.80599999      -1.47151397E-04
  -1.80400002      -1.72842439E-04
  -1.80200005      -1.93690328E-04
  -1.79999995      -2.03123433E-04
  -1.79799998      -1.97237503E-04
  -1.79600000      -1.76127563E-04
  -1.79400003      -1.44006088E-04
  -1.79200006      -1.08095657E-04
  -1.78999996      -7.66632656E-05
  -1.78799999      -5.67897514E-05
  -1.78600001      -5.25183787E-05
  -1.78400004      -6.39097125E-05
  -1.78199995      -8.72643359E-05
  -1.77999997      -1.16416057E-04
  -1.77800000      -1.44650810E-04
  -1.77600002      -1.66605561E-04
  -1.77400005      -1.79543320E-04
  -1.77199996      -1.83677155E-04
  -1.76999998      -1.81592070E-04
  -1.76800001      -1.77111098E-04
  -1.76600003      -1.74038796E-04
  -1.76400006      -1.75112567E-04
  -1.76199996      -1.81321418E-04
  -1.75999999      -1.91655388E-04
  -1.75800002      -2.03355128E-04
  -1.75600004      -2.12737432E-04
  -1.75399995      -2.16537956E-04
  -1.75199997      -2.13403546E-04
  -1.75000000      -2.04863303E-04
  -1.74800003      -1.95083761E-04
  -1.74600005      -1.89173210E-04
  -1.74399996      -1.90616454E-04
  -1.74199998      -1.99149188E-04
  -1.74000001      -2.10475075E-04
  -1.73800004      -2.18424349E-04
  -1.73599994      -2.18744011E-04
  -1.73399997      -2.12480518E-04
  -1.73199999      -2.06718178E-04
  -1.73000002      -2.11628008E-04
  -1.72800004      -2.34870502E-04
  -1.72599995      -2.76228442E-04
  -1.72399998      -3.25717148E-04
  -1.72200000      -3.66878288E-04
  -1.72000003      -3.84167419E-04
  -1.71800005      -3.70835769E-04
  -1.71599996      -3.33024334E-04
  -1.71399999      -2.87524628E-04
  -1.71200001      -2.54011364E-04
  -1.71000004      -2.45663890E-04
  -1.70799994      -2.63136899E-04
  -1.70599997      -2.95094127E-04
  -1.70400000      -3.24894383E-04
  -1.70200002      -3.39581311E-04
  -1.70000005      -3.36101395E-04
  -1.69799995      -3.21411499E-04
  -1.69599998      -3.06826987E-04
  -1.69400001      -3.00392596E-04
  -1.69200003      -3.02138331E-04
  -1.69000006      -3.05147667E-04
  -1.68799996      -3.01594817E-04
  -1.68599999      -2.89649412E-04
  -1.68400002      -2.76474690E-04
  -1.68200004      -2.74933933E-04
  -1.67999995      -2.95647071E-04
  -1.67799997      -3.39195976E-04
  -1.67600000      -3.93539813E-04
  -1.67400002      -4.38803196E-04
  -1.67200005      -4.57218819E-04
  -1.66999996      -4.42792836E-04
  -1.66799998      -4.05178871E-04
  -1.66600001      -3.65399756E-04
  -1.66400003      -3.45615990E-04
  -1.66199994      -3.58422782E-04
  -1.65999997      -4.01299563E-04
  -1.65799999      -4.58834344E-04
  -1.65600002      -5.11027349E-04
  -1.65400004      -5.42868627E-04
  -1.65199995      -5.50148892E-04
  -1.64999998      -5.39036701E-04
  -1.64800000      -5.20623289E-04
  -1.64600003      -5.04226715E-04
  -1.64400005      -4.93375235E-04
  -1.64199996      -4.86246980E-04
  -1.63999999      -4.79440670E-04
  -1.63800001      -4.72086511E-04
  -1.63600004      -4.67480335E-04
  -1.63399994      -4.71317006E-04
  -1.63199997      -4.87866317E-04
  -1.63000000      -5.16668661E-04
  -1.62800002      -5.51854842E-04
  -1.62600005      -5.84486872E-04
  -1.62399995      -6.06521382E-04
  -1.62199998      -6.14206656E-04
  -1.62000000      -6.09287701E-04
  -1.61800003      -5.97781152E-04
  -1.61600006      -5.87336603E-04
  -1.61399996      -5.84611262E-04
  -1.61199999      -5.93593344E-04
  -1.61000001      -6.14975346E-04
  -1.60800004      -6.46177388E-04
  -1.60599995      -6.81741396E-04
  -1.60399997      -7.14251131E-04
  -1.60200000      -7.36126909E-04
  -1.60000002      -7.42219796E-04
  -1.59800005      -7.32322689E-04
  -1.59599996      -7.12181616E-04
  -1.59399998      -6.91938971E-04
  -1.59200001      -6.82194252E-04
  -1.59000003      -6.89357286E-04
  -1.58800006      -7.12682668E-04
  -1.58599997      -7.44712364E-04
  -1.58399999      -7.75062013E-04
  -1.58200002      -7.95588712E-04
  -1.58000004      -8.04156996E-04
  -1.57799995      -8.05033778E-04
  -1.57599998      -8.05900781E-04
  -1.57400000      -8.13391118E-04
  -1.57200003      -8.29757191E-04
  -1.57000005      -8.52376979E-04
  -1.56799996      -8.75968311E-04
  -1.56599998      -8.95793492E-04
  -1.56400001      -9.09805647E-04
  -1.56200004      -9.18707345E-04
  -1.55999994      -9.24447668E-04
  -1.55799997      -9.28677036E-04
  -1.55599999      -9.32423165E-04
  -1.55400002      -9.37033503E-04
  -1.55200005      -9.45183623E-04
  -1.54999995      -9.60526755E-04
  -1.54799998      -9.85574094E-04
  -1.54600000      -1.01899379E-03
  -1.54400003      -1.05446915E-03
  -1.54200006      -1.08268054E-03
  -1.53999996      -1.09603163E-03
  -1.53799999      -1.09361112E-03
  -1.53600001      -1.08309905E-03
  -1.53400004      -1.07769319E-03
  -1.53199995      -1.08908257E-03
  -1.52999997      -1.12026650E-03
  -1.52800000      -1.16271584E-03
  -1.52600002      -1.20025629E-03
  -1.52400005      -1.21811591E-03
  -1.52199996      -1.21215719E-03
  -1.51999998      -1.19263073E-03
  -1.51800001      -1.17959222E-03
  -1.51600003      -1.19193899E-03
  -1.51400006      -1.23605959E-03
  -1.51199996      -1.30078872E-03
  -1.50999999      -1.36208173E-03
  -1.50800002      -1.39533519E-03
  -1.50600004      -1.38874643E-03
  -1.50399995      -1.35026244E-03
  -1.50199997      -1.30409142E-03
  -1.50000000      -1.27852499E-03
  -1.49800003      -1.29163777E-03
  -1.49600005      -1.34254643E-03
  -1.49399996      -1.41273579E-03
  -1.49199998      -1.47638645E-03
  -1.49000001      -1.51383714E-03
  -1.48800004      -1.52092392E-03
  -1.48599994      -1.50957424E-03
  -1.48399997      -1.49999943E-03
  -1.48199999      -1.50928262E-03
  -1.48000002      -1.54269661E-03
  -1.47800004      -1.59208989E-03
  -1.47599995      -1.64151471E-03
  -1.47399998      -1.67640182E-03
  -1.47200000      -1.69108738E-03
  -1.47000003      -1.69094070E-03
  -1.46800005      -1.68862671E-03
  -1.46599996      -1.69716263E-03
  -1.46399999      -1.72370370E-03
  -1.46200001      -1.76699273E-03
  -1.46000004      -1.81900489E-03
  -1.45799994      -1.86913507E-03
  -1.45599997      -1.90844201E-03
  -1.45400000      -1.93219690E-03
  -1.45200002      -1.94043131E-03
  -1.45000005      -1.93725456E-03
  -1.44799995      -1.92978652E-03
  -1.44599998      -1.92691595E-03
  -1.44400001      -1.93749496E-03
  -1.44200003      -1.96774025E-03
  -1.44000006      -2.01842934E-03
  -1.43799996      -2.08334299E-03
  -1.43599999      -2.15037866E-03
  -1.43400002      -2.20564101E-03
  -1.43200004      -2.23906827E-03
  -1.42999995      -2.24898406E-03
  -1.42799997      -2.24315654E-03
  -1.42600000      -2.23558815E-03
  -1.42400002      -2.24044733E-03
  -1.42200005      -2.26605963E-03
  -1.41999996      -2.31180969E-03
  -1.41799998      -2.36924388E-03
  -1.41600001      -2.42649484E-03
  -1.41400003      -2.47362419E-03
  -1.41199994      -2.50632130E-03
  -1.40999997      -2.52652378E-03
  -1.40799999      -2.54025077E-03
  -1.40600002      -2.55420920E-03
  -1.40400004      -2.57298350E-03
  -1.40199995      -2.59792991E-03
  -1.39999998      -2.62779160E-03
  -1.39800000      -2.66019348E-03
  -1.39600003      -2.69301329E-03
  -1.39400005      -2.72505265E-03
  -1.39199996      -2.75603635E-03
  -1.38999999      -2.78634042E-03
  -1.38800001      -2.81678443E-03
  -1.38600004      -2.84850295E-03
  -1.38399994      -2.88267457E-03
  -1.38199997      -2.91997474E-03
  -1.38000000      -2.95994431E-03
  -1.37800002      -3.00076604E-03
  -1.37600005      -3.03983828E-03
  -1.37399995      -3.07506416E-03
  -1.37199998      -3.10617220E-03
  -1.37000000      -3.13517172E-03
  -1.36800003      -3.16542969E-03
  -1.36600006      -3.19974660E-03
  -1.36399996      -3.23854666E-03
  -1.36199999      -3.27937515E-03
  -1.36000001      -3.31821013E-03
  -1.35800004      -3.35194124E-03
  -1.35599995      -3.38059640E-03
  -1.35399997      -3.40794283E-03
  -1.35200000      -3.44002293E-03
  -1.35000002      -3.48235480E-03
  -1.34800005      -3.53728631E-03
  -1.34599996      -3.60281160E-03
  -1.34399998      -3.67328874E-03
  -1.34200001      -3.74151021E-03
  -1.34000003      -3.80105339E-03
  -1.33800006      -3.84799531E-03
  -1.33599997      -3.88167030E-03
  -1.33399999      -3.90461599E-03
  -1.33200002      -3.92200286E-03
  -1.33000004      -3.94062884E-03
  -1.32799995      -3.96740669E-03
  -1.32599998      -4.00738092E-03
  -1.32400000      -4.06178413E-03
  -1.32200003      -4.12700465E-03
  -1.32000005      -4.19530552E-03
  -1.31799996      -4.25746711E-03
  -1.31599998      -4.30650683E-03
  -1.31400001      -4.34087077E-03
  -1.31200004      -4.36545722E-03
  -1.30999994      -4.38972097E-03
  -1.30799997      -4.42354707E-03
  -1.30599999      -4.47278609E-03
  -1.30400002      -4.53666598E-03
  -1.30200005      -4.60843090E-03
  -1.29999995      -4.67892410E-03
  -1.29799998      -4.74127010E-03
  -1.29600000      -4.79416642E-03
  -1.29400003      -4.84204898E-03
  -1.29200006      -4.89208009E-03
  -1.28999996      -4.94965492E-03
  -1.28799999      -5.01499977E-03
  -1.28600001      -5.08276792E-03
  -1.28400004      -5.14488947E-03
  -1.28199995      -5.19509753E-03
  -1.27999997      -5.23262098E-03
  -1.27800000      -5.26301330E-03
  -1.27600002      -5.29563287E-03
  -1.27400005      -5.33910422E-03
  -1.27199996      -5.39708789E-03
  -1.26999998      -5.46643790E-03
  -1.26800001      -5.53859631E-03
  -1.26600003      -5.60349412E-03
  -1.26400006      -5.65410173E-03
  -1.26199996      -5.68958465E-03
  -1.25999999      -5.71575761E-03
  -1.25800002      -5.74269192E-03
  -1.25600004      -5.78058325E-03
  -1.25399995      -5.83562860E-03
  -1.25199997      -5.90765197E-03
  -1.25000000      -5.99043956E-03
  -1.24800003      -6.07462414E-03
  -1.24600005      -6.15184894E-03
  -1.24399996      -6.21830393E-03
  -1.24199998      -6.27604872E-03
  -1.24000001      -6.33150479E-03
  -1.23800004      -6.39188150E-03
  -1.23599994      -6.46129297E-03
  -1.23399997      -6.53854618E-03
  -1.23199999      -6.61771791E-03
  -1.23000002      -6.69121789E-03
  -1.22800004      -6.75382931E-03
  -1.22599995      -6.80559920E-03
  -1.22399998      -6.85204519E-03
  -1.22200000      -6.90155104E-03
  -1.22000003      -6.96127675E-03
  -1.21800005      -7.03369221E-03
  -1.21599996      -7.11546186E-03
  -1.21399999      -7.19919754E-03
  -1.21200001      -7.27704866E-03
  -1.21000004      -7.34423706E-03
  -1.20799994      -7.40080513E-03
  -1.20599997      -7.45096197E-03
  -1.20400000      -7.50071742E-03
  -1.20200002      -7.55534368E-03
  -1.20000005      -7.61790900E-03
  -1.19799995      -7.68923806E-03
  -1.19599998      -7.76866358E-03
  -1.19400001      -7.85459671E-03
  -1.19200003      -7.94444419E-03
  -1.19000006      -8.03428702E-03
  -1.18799996      -8.11922643E-03
  -1.18599999      -8.19494855E-03
  -1.18400002      -8.26000981E-03
  -1.18200004      -8.31748731E-03
  -1.17999995      -8.37453268E-03
  -1.17799997      -8.43941141E-03
  -1.17600000      -8.51731934E-03
  -1.17400002      -8.60722084E-03
  -1.17200005      -8.70183110E-03
  -1.16999996      -8.79111979E-03
  -1.16799998      -8.86767451E-03
  -1.16600001      -8.93094577E-03
  -1.16400003      -8.98784306E-03
  -1.16199994      -9.04912781E-03
  -1.15999997      -9.12345387E-03
  -1.15799999      -9.21248458E-03
  -1.15600002      -9.30987578E-03
  -1.15400004      -9.40484088E-03
  -1.15199995      -9.48831066E-03
  -1.14999998      -9.55812633E-03
  -1.14800000      -9.62024741E-03
  -1.14600003      -9.68519971E-03
  -1.14400005      -9.76184383E-03
  -1.14199996      -9.85208899E-03
  -1.13999999      -9.94967483E-03
  -1.13800001      -1.00437691E-02
  -1.13600004      -1.01251882E-02
  -1.13399994      -1.01916017E-02
  -1.13199997      -1.02487281E-02
  -1.13000000      -1.03068855E-02
  -1.12800002      -1.03751477E-02
  -1.12600005      -1.04566142E-02
  -1.12399995      -1.05474573E-02
  -1.12199998      -1.06400233E-02
  -1.12000000      -1.07278004E-02
  -1.11800003      -1.08091384E-02
  -1.11600006      -1.08875316E-02
  -1.11399996      -1.09686404E-02
  -1.11199999      -1.10562295E-02
  -1.11000001      -1.11496579E-02
  -1.10800004      -1.12444377E-02
  -1.10599995      -1.13352528E-02
  -1.10399997      -1.14193857E-02
  -1.10200000      -1.14983525E-02
  -1.10000002      -1.15767950E-02
  -1.09800005      -1.16594918E-02
  -1.09599996      -1.17484117E-02
  -1.09399998      -1.18416762E-02
  -1.09200001      -1.19348913E-02
  -1.09000003      -1.20239435E-02
  -1.08800006      -1.21074785E-02
  -1.08599997      -1.21876225E-02
  -1.08399999      -1.22686634E-02
  -1.08200002      -1.23546245E-02
  -1.08000004      -1.24471309E-02
  -1.07799995      -1.25448434E-02
  -1.07599998      -1.26443841E-02
  -1.07400000      -1.27419932E-02
  -1.07200003      -1.28348423E-02
  -1.07000005      -1.29213482E-02
  -1.06799996      -1.30008180E-02
  -1.06599998      -1.30731873E-02
  -1.06400001      -1.31394779E-02
  -1.06200004      -1.32027324E-02
  -1.05999994      -1.32684158E-02
  -1.05799997      -1.33433444E-02
  -1.05599999      -1.34331053E-02
  -1.05400002      -1.35389501E-02
  -1.05200005      -1.36560416E-02
  -1.04999995      -1.37744686E-02
  -1.04799998      -1.38829304E-02
  -1.04600000      -1.39735462E-02
  -1.04400003      -1.40453335E-02
  -1.04200006      -1.41045908E-02
  -1.03999996      -1.41620543E-02
  -1.03799999      -1.42283533E-02
  -1.03600001      -1.43100442E-02
  -1.03400004      -1.44079002E-02
  -1.03199995      -1.45177850E-02
  -1.02999997      -1.46330632E-02
  -1.02800000      -1.47470301E-02
  -1.02600002      -1.48543976E-02
  -1.02400005      -1.49517227E-02
  -1.02199996      -1.50373336E-02
  -1.01999998      -1.51114296E-02
  -1.01800001      -1.51764229E-02
  -1.01600003      -1.52370818E-02
  -1.01400006      -1.52998865E-02
  -1.01199996      -1.53712938E-02
  -1.00999999      -1.54554639E-02
  -1.00800002      -1.55524537E-02
  -1.00600004      -1.56578794E-02
  -1.00399995      -1.57643985E-02
  -1.00199997      -1.58644710E-02
  -1.00000000      -1.59531906E-02
 -0.998000026      -1.60298757E-02
 -0.995999992      -1.60977170E-02
 -0.994000018      -1.61618404E-02
 -0.991999984      -1.62268691E-02
 -0.990000010      -1.62953194E-02
 -0.987999976      -1.63674876E-02
 -0.986000001      -1.64426249E-02
 -0.984000027      -1.65204015E-02
 -0.981999993      -1.66015290E-02
 -0.980000019      -1.66872051E-02
 -0.977999985      -1.67777464E-02
 -0.976000011      -1.68715362E-02
 -0.973999977      -1.69650931E-02
 -0.972000003      -1.70543008E-02
 -0.970000029      -1.71362013E-02
 -0.967999995      -1.72103159E-02
 -0.966000021      -1.72787569E-02
 -0.963999987      -1.73453018E-02
 -0.962000012      -1.74139142E-02
 -0.959999979      -1.74874403E-02
 -0.958000004      -1.75668709E-02
 -0.955999970      -1.76511630E-02
 -0.953999996      -1.77375302E-02
 -0.952000022      -1.78221110E-02
 -0.949999988      -1.79009829E-02
 -0.948000014      -1.79714113E-02
 -0.945999980      -1.80330724E-02
 -0.944000006      -1.80885065E-02
 -0.941999972      -1.81424823E-02
 -0.939999998      -1.82002429E-02
 -0.938000023      -1.82652827E-02
 -0.935999990      -1.83377583E-02
 -0.934000015      -1.84144359E-02
 -0.931999981      -1.84901543E-02
 -0.930000007      -1.85601506E-02
 -0.927999973      -1.86221488E-02
 -0.925999999      -1.86771285E-02
 -0.924000025      -1.87285896E-02
 -0.921999991      -1.87807530E-02
 -0.920000017      -1.88365597E-02
 -0.917999983      -1.88965108E-02
 -0.916000009      -1.89587772E-02
 -0.913999975      -1.90203786E-02
 -0.912000000      -1.90787204E-02
 -0.910000026      -1.91327278E-02
 -0.907999992      -1.91831030E-02
 -0.906000018      -1.92317069E-02
 -0.903999984      -1.92805268E-02
 -0.902000010      -1.93307512E-02
 -0.899999976      -1.93824582E-02
 -0.898000002      -1.94349810E-02
 -0.896000028      -1.94875002E-02
 -0.893999994      -1.95394084E-02
 -0.892000020      -1.95903294E-02
 -0.889999986      -1.96398757E-02
 -0.888000011      -1.96874589E-02
 -0.885999978      -1.97325125E-02
 -0.884000003      -1.97748058E-02
 -0.882000029      -1.98146906E-02
 -0.879999995      -1.98528767E-02
 -0.878000021      -1.98898502E-02
 -0.875999987      -1.99252404E-02
 -0.874000013      -1.99577622E-02
 -0.871999979      -1.99858919E-02
 -0.870000005      -2.00089514E-02
 -0.867999971      -2.00278834E-02
 -0.865999997      -2.00451668E-02
 -0.864000022      -2.00638250E-02
 -0.861999989      -2.00860761E-02
 -0.860000014      -2.01122724E-02
 -0.857999980      -2.01407559E-02
 -0.856000006      -2.01685503E-02
 -0.853999972      -2.01925319E-02
 -0.851999998      -2.02105530E-02
 -0.850000024      -2.02221107E-02
 -0.847999990      -2.02284846E-02
 -0.846000016      -2.02324018E-02
 -0.843999982      -2.02372968E-02
 -0.842000008      -2.02462003E-02
 -0.839999974      -2.02605315E-02
 -0.838000000      -2.02792250E-02
 -0.836000025      -2.02987213E-02
 -0.833999991      -2.03141421E-02
 -0.832000017      -2.03213077E-02
 -0.829999983      -2.03187745E-02
 -0.828000009      -2.03087050E-02
 -0.825999975      -2.02960502E-02
 -0.824000001      -2.02861130E-02
 -0.822000027      -2.02816520E-02
 -0.819999993      -2.02811584E-02
 -0.818000019      -2.02792399E-02
 -0.815999985      -2.02691685E-02
 -0.814000010      -2.02464424E-02
 -0.811999977      -2.02115215E-02
 -0.810000002      -2.01702546E-02
 -0.808000028      -2.01315396E-02
 -0.805999994      -2.01032925E-02
 -0.804000020      -2.00884789E-02
 -0.801999986      -2.00833809E-02
 -0.800000012      -2.00789534E-02
 -0.797999978      -2.00646687E-02
 -0.796000004      -2.00330671E-02
 -0.794000030      -1.99828111E-02
 -0.791999996      -1.99187752E-02
 -0.790000021      -1.98492426E-02
 -0.787999988      -1.97818764E-02
 -0.786000013      -1.97205637E-02
 -0.783999979      -1.96649525E-02
 -0.782000005      -1.96123384E-02
 -0.779999971      -1.95605364E-02
 -0.777999997      -1.95098687E-02
 -0.776000023      -1.94628350E-02
 -0.773999989      -1.94217861E-02
 -0.772000015      -1.93860289E-02
 -0.769999981      -1.93503909E-02
 -0.768000007      -1.93062890E-02
 -0.765999973      -1.92450341E-02
 -0.763999999      -1.91616975E-02
 -0.762000024      -1.90576725E-02
 -0.759999990      -1.89406294E-02
 -0.758000016      -1.88221782E-02
 -0.755999982      -1.87140610E-02
 -0.754000008      -1.86242051E-02
 -0.751999974      -1.85543485E-02
 -0.750000000      -1.84994601E-02
 -0.748000026      -1.84491575E-02
 -0.745999992      -1.83908530E-02
 -0.744000018      -1.83135048E-02
 -0.741999984      -1.82110649E-02
 -0.740000010      -1.80844702E-02
 -0.737999976      -1.79412104E-02
 -0.736000001      -1.77926458E-02
 -0.734000027      -1.76501647E-02
 -0.731999993      -1.75215788E-02
 -0.730000019      -1.74089745E-02
 -0.727999985      -1.73087586E-02
 -0.726000011      -1.72136426E-02
 -0.723999977      -1.71152968E-02
 -0.722000003      -1.70068182E-02
 -0.720000029      -1.68842990E-02
 -0.717999995      -1.67471077E-02
 -0.716000021      -1.65972132E-02
 -0.713999987      -1.64381098E-02
 -0.712000012      -1.62737332E-02
 -0.709999979      -1.61078107E-02
 -0.708000004      -1.59435160E-02
 -0.705999970      -1.57834403E-02
 -0.703999996      -1.56295802E-02
 -0.702000022      -1.54828979E-02
 -0.699999988      -1.53426072E-02
 -0.698000014      -1.52055845E-02
 -0.695999980      -1.50662949E-02
 -0.694000006      -1.49178281E-02
 -0.691999972      -1.47540206E-02
 -0.689999998      -1.45717114E-02
 -0.688000023      -1.43721635E-02